64
Lattice="8.842307248294013 -1.3821838642398718e-15 0.0 -5.115382802556824 5.294014180146882 0.0 0.0 0.0 100.0" Properties=species:S:1:pos:R:3:REF_forces:R:3 REF_energy=-56975.6028847435 pbc="T T T"
C        0.50369634       3.71018175       6.23906223      -0.77440534      -0.31509934       3.68931422
C        1.72139816       3.24624958       6.72248052      -1.21687183      -0.06709180       7.85381639
C        1.97736060       1.85296052       6.76087368      -1.71859808       0.17413580       2.96210494
C        0.98621945       0.92568073       6.30117177      -3.57343999       2.78102282       2.29017847
C       -0.25974439       1.42600164       5.80278634      -0.65426514      -0.43863265       4.24799420
C       -0.46745126       2.81284684       5.78633497      -3.06404108      -0.12151552       4.10863975
C        3.21680404       1.38120791       7.26034748      -0.34363999      -0.91916781       4.81431965
C        3.46674486       0.01472467       7.30480892       2.43916463       0.03907638       0.68936526
C        2.50665920      -0.89640218       6.85605198       5.14969001       0.19146419      -4.80123771
C        1.26677371      -0.47783603       6.35183063       0.09742632       0.00217253      -8.21405849
C        0.25380210      -1.42670016       5.87798253       0.34194143       1.04990853      -4.29722788
C       -0.99080549      -0.92621979       5.37637860       3.44208218      -0.66877249      -4.37582370
C       -1.27272220       0.47713677       5.32895331       2.94391047      -2.22621687       8.18195670
C       -1.97918386      -1.85317547       4.91012138       1.86163576      -0.22797452      -2.82971440
C       -3.21900011      -1.38146621       4.41153247       0.10393988       0.71338871      -4.85700400
C       -3.47378061      -0.01555145       4.37855582      -2.12858659       0.27240692      -0.79949424
C       -2.51435626       0.89549764       4.82888181     -10.31338423       4.70050046       5.90968072
C        0.45977737      -2.81374881       5.89854212       3.20244317      -0.57255430      -4.47819917
C       -0.51070308      -3.71100567       5.44423197       1.01937094       0.37014775      -3.91755096
C       -1.72357956      -3.24650660       4.94936293       1.29657326       0.21285698      -7.81991953
C       -2.73110502      -4.22384210       4.47118594       2.26764997       3.75259274      -1.82048521
N       -3.93099871      -3.69228847       3.95956189       1.54742315      -0.30235780      -8.28010694
C       -4.25587829      -2.32219441       3.92279991       1.94581183       0.95157856      -1.44618487
C        2.73265562       4.22402479       7.19179835      -3.01039784      -3.72748039       1.64856994
N        3.95561875       3.69518136       7.64867863      -1.87544240       0.01935833       8.83279855
C        4.25741270       2.32237578       7.74022490      -2.20621223      -1.01573498       1.60864575
O       -5.34670204      -1.94476009       3.50002384      -1.42968578       0.48296010      -1.32963462
O       -2.54540591      -5.43845690       4.50751141       2.61638474      -3.15614630      -5.56072217
O        5.33522707       1.94341575       8.19387474       1.61215433      -0.33657623       1.25294988
O        2.53395897       5.43711272       7.18631001      -2.18668022       3.40174206       5.80443222
C       -4.93605865      -4.64134527       3.46308599       7.50472124       3.03059496      -7.43070962
C        4.97922515       4.64641414       8.10114826      -5.60752765      -2.99047257       6.33496794
H        0.32742212       4.78597275       6.22087371      -0.03812472      -0.59013570       1.23464832
H       -1.40549030       3.22099425       5.41426920      -0.21043712      -0.15485957       1.41192295
H        4.42612607      -0.32585333       7.69509600      -0.53118876       0.05800546       0.42058651
H        2.74627269      -1.95699943       6.90756200       0.16369705      -0.28607537      -0.38739120
H       -4.43520448       0.32478646       3.99311597       0.56732965       0.02026604      -0.49738441
H       -2.75613731       1.95584026       4.78251566       0.42167888      -0.13388645      -0.70442625
H        1.39565985      -3.22214962       6.27572556       0.27530298       0.10156365      -1.52455565
H       -0.33645693      -4.78703492       5.46723409       0.03690924       0.56843888      -1.23109121
H       -5.60880720      -4.94631210       4.27680264       1.80343016      -4.53515360      -6.27767903
H       -5.52182245      -4.14455136       2.68511573      -0.23784614       0.18138035       0.10992065
H       -4.41546131      -5.52423102       3.08275024      -0.01476197      -0.21682168      -0.02616600
H        4.85570302       5.57596835       7.53915650      -1.19978888       1.77843790       3.48220041
H        5.96189877       4.19626953       7.93718435      -0.38513657      -1.99466084       5.37573343
H        4.85757996       4.85801176       9.17267009       0.06106129       0.14542399       0.71929172
C       -0.00160143       0.00018723       0.00000000       0.23767780       0.05223202      -0.00755650
C       -0.34241425       1.37346863       0.00000000      -0.18616375      -0.04123029      -0.01274163
C       -1.70672903       1.76485862       0.00000000       0.19883210       0.10756550      -0.03087931
C       -2.04754185       3.13814002       0.00000000      -0.21016012      -0.01187908      -0.01127003
C       -3.41185663       3.52953002       0.00000000       0.22632116       0.05460402      -0.00303893
C       -3.75266945       4.90281142       0.00000000      -0.17313643      -0.07060041       0.00440106
C        2.37745845       0.58841103       0.00000000       0.21139626       0.04630369       0.00536227
C        2.03664563       1.96169243       0.00000000      -0.20869048      -0.06817760       0.00081964
C        0.67233085       2.35308242       0.00000000       0.21785552       0.07187526      -0.00098716
C        0.33151803       3.72636382       0.00000000      -0.24138003      -0.06075025       0.00127903
C       -1.03279675       4.11775381       0.00000000       0.18808484       0.05066664      -0.00706486
C       -1.37360957       5.49103521       0.00000000      -0.20696021      -0.07892930       0.00082617
C        4.75651833       1.17663482       0.00000000       0.17107050       0.05446311       0.00495767
C        4.41570551       2.54991623       0.00000000      -0.18830171      -0.04336372       0.00077426
C        3.05139073       2.94130622       0.00000000       0.21118387       0.03395295       0.00629708
C        2.71057791       4.31458762       0.00000000      -0.21274577      -0.07260775      -0.00638111
C        1.34626313       4.70597761       0.00000000       0.19232192       0.03591456      -0.00486966
C        1.00545031       6.07925901       0.00000000      -0.22847546      -0.06207670      -0.01719931
106
Lattice="17.17989810262132 8.251567066962832e-16 0.0 -5.616141173971865 9.082572294291154 0.0 0.0 0.0 100.0" Properties=species:S:1:pos:R:3:REF_forces:R:3 REF_energy=-100581.72555125 pbc="T T T"
C       -1.04718692       3.61041961       5.77186780       0.04109187      -0.07450892       0.00399666
C        0.33327452       3.75356251       5.69729998       0.00956525       0.06214179      -0.01012033
C        1.16269659       2.60580468       5.75167095       0.01646703      -0.00818480      -0.00002448
C        0.58117715       1.30244804       5.88063236      -0.01557802      -0.00799959       0.00035884
C       -0.84383309       1.17789496       5.95111119       0.02046633       0.00327095      -0.00194743
C       -1.62270532       2.34278659       5.89509382      -0.05325743       0.01664951       0.00103023
C        2.57034823       2.75396424       5.68231491      -0.01941410       0.00589724      -0.00146118
C        3.38542699       1.62978138       5.74217463      -0.01132748      -0.00991909      -0.00924169
C        2.82645187       0.35475557       5.86528189       0.01236825      -0.04134048       0.00624666
C        1.43977569       0.15750213       5.93580208       0.00922588       0.01887086      -0.00078623
C        0.84446590      -1.17670926       6.06414872      -0.02040131      -0.00384132       0.00194655
C       -0.58068874      -1.30153290       6.13114479       0.01629092       0.00893222      -0.00014616
C       -1.43914209      -0.15631510       6.07947405      -0.00918598      -0.01791584       0.00056841
C       -1.16250162      -2.60544104       6.25301255      -0.01633458       0.00908703       0.00290206
C       -2.57011372      -2.75352574       6.32332606       0.02265104      -0.00231745      -0.00806847
C       -3.38467753      -1.62837701       6.27589405       0.00498742       0.00732045      -0.00109921
C       -2.82563211      -0.35321936       6.15448471      -0.00736108       0.04003727      -0.00699327
C        1.62352204      -2.34125562       6.12461178       0.05401651      -0.01550169      -0.00081875
C        1.04793290      -3.60902200       6.24612493      -0.04142671       0.07190527      -0.01298272
C       -0.33304200      -3.75312780       6.30830186      -0.00716042      -0.06059696       0.00108355
C       -0.91311530      -5.11212731       6.43312475      -0.18924775       0.17296731      -0.01214429
N       -2.31873042      -5.19626577       6.46805513       0.20035243      -0.11953795      -0.00610222
C       -3.19409653      -4.09290476       6.44844494      -0.27222416       0.09230508       0.01919107
C        0.91294907       5.11181759       5.56289102       0.18036704      -0.17581481       0.00417476
N        2.31610984       5.19135266       5.46872206      -0.18792762       0.11856124      -0.00032213
C        3.19393255       4.09259937       5.54761422       0.25406100      -0.09556669      -0.00833636
O       -4.41035701      -4.25247419       6.52807391       0.28704711       0.01004914       0.04081674
O       -0.21975968      -6.12498866       6.49992804       0.14490979      -0.19158947      -0.01083902
O        4.41157688       4.25476781       5.50139320      -0.26798931      -0.01118845      -0.05324967
O        0.22097399       6.12727095       5.52945795      -0.14192311       0.19361183       0.01293409
C       -2.91581871      -6.53412294       6.57277565      -0.00867177       0.01603584       0.01557843
C        2.91122786       6.52550765       5.31638149      -0.01227801      -0.01058023       0.00173570
H       -1.66582145       4.50724942       5.73042714       0.03386896      -0.03200776      -0.02161895
H       -2.70804368       2.27807051       5.94788556      -0.03345670      -0.01242010       0.00871518
H        4.46569421       1.76748659       5.68935711      -0.00401590      -0.00154703       0.00433661
H        3.50283845      -0.49715729       5.90627100       0.02879653      -0.01040876      -0.01098084
H       -4.46472739      -1.76567472       6.33395680       0.00009751      -0.00192995      -0.00053689
H       -3.50178800       0.49912611       6.11906177      -0.02804027       0.01053734       0.01293135
H        2.70908991      -2.27610920       6.07735788       0.03391839       0.01237104      -0.00792143
H        1.66678355      -4.50544683       6.29277422      -0.03391072       0.03190140       0.02157016
H       -3.03539156      -6.81795342       7.62770349      -0.00325514      -0.00188538       0.00255141
H       -3.90023761      -6.50827519       6.09799941      -0.01451211       0.02296661      -0.00567181
H       -2.24533851      -7.24776410       6.08663088       0.00263163      -0.00140753      -0.00846201
H        2.19846902       7.15991346       4.78283900      -0.00146397      -0.00084025      -0.01671142
H        3.85338592       6.42045803       4.77189590       0.01117037      -0.01149942       0.00042905
H        3.11538774       6.96785571       6.30145869       0.01162774      -0.00367707       0.00893054
C       -0.00153694      -0.00048728       0.00000000       0.16445605       0.13208160       0.00143566
C       -0.87649270       1.11149636       0.00000000      -0.16343691      -0.13209832       0.00156145
C        4.20535981       0.60501754       0.00000000       0.16317605       0.13200935       0.00109125
C        3.33040405       1.71700118       0.00000000      -0.16338633      -0.13080828       0.00173909
C        1.92575588       1.51327477       0.00000000       0.16496533       0.13207828       0.00188672
C        1.05080013       2.62525841       0.00000000      -0.16414331      -0.13349777       0.00231226
C       -0.35384805       2.42153200       0.00000000       0.16414587       0.13225664       0.00180574
C       -1.22880380       3.53351564       0.00000000      -0.16285484      -0.13167242       0.00180812
C       10.69186048       0.30226513       0.00000000       0.16432710       0.13292472       0.00014792
C        9.81690473       1.41424877       0.00000000      -0.16368760      -0.13207589       0.00013471
C        8.41225655       1.21052236       0.00000000       0.16340501       0.13417793       0.00011934
C        7.53730080       2.32250600       0.00000000      -0.16585244      -0.13032029      -0.00008045
C        6.13265263       2.11877959       0.00000000       0.16207375       0.13401536       0.00036322
C        5.25769687       3.23076323       0.00000000      -0.16386513      -0.12966008       0.00063139
C        3.85304870       3.02703682       0.00000000       0.16665555       0.13191050       0.00120399
C        2.97809295       4.13902045       0.00000000      -0.16234231      -0.13373826       0.00146502
C        1.57344477       3.93529404       0.00000000       0.16457604       0.13266191       0.00152673
C        0.69848902       5.04727768       0.00000000      -0.16480236      -0.13237852       0.00131057
C       -0.70615916       4.84355127       0.00000000       0.16327197       0.13294411       0.00136954
C       -1.58111491       5.95553491       0.00000000      -0.16268184      -0.13143307       0.00094995
C       -2.98576308       5.75180850       0.00000000       0.16520297       0.13266707       0.00035711
C       -3.86071884       6.86379214       0.00000000      -0.16366697      -0.13161670       0.00060782
C       14.89875723       0.90776995       0.00000000       0.16440633       0.13158455       0.00077509
C       14.02380148       2.01975359       0.00000000      -0.16315962      -0.13226870       0.00052232
C       12.61915330       1.81602718       0.00000000       0.16414259       0.13231996       0.00032059
C       11.74419755       2.92801082       0.00000000      -0.16383570      -0.13237635      -0.00038592
C       10.33954938       2.72428441       0.00000000       0.16429133       0.13324488       0.00043607
C        9.46459362       3.83626805       0.00000000      -0.16559439      -0.13198422      -0.00006928
C        8.05994545       3.63254163       0.00000000       0.16233507       0.13359936      -0.00010030
C        7.18498970       4.74452527       0.00000000      -0.16663268      -0.13174155      -0.00006612
C        5.78034152       4.54079886       0.00000000       0.16432703       0.13017849       0.00059052
C        4.90538577       5.65278250       0.00000000      -0.16184679      -0.13488657       0.00113375
C        3.50073759       5.44905609       0.00000000       0.16661640       0.13050290       0.00138688
C        2.62578184       6.56103973       0.00000000      -0.16433757      -0.13437777       0.00198756
C        1.22113367       6.35731332       0.00000000       0.16168062       0.13246493       0.00127001
C        0.34617791       7.46929696       0.00000000      -0.16509175      -0.13274610       0.00126458
C       -1.05847026       7.26557055       0.00000000       0.16321739       0.13187155       0.00104288
C       -1.93342602       8.37755419       0.00000000      -0.16305191      -0.13221614       0.00066614
C       -3.33807419       8.17382778       0.00000000       0.16444124       0.13228897       0.00103462
C       -4.21302994       9.28581142       0.00000000      -0.16384868      -0.13187815       0.00160692
C       14.54644612       3.32978922       0.00000000       0.16459701       0.13230663       0.00051183
C       13.67149037       4.44177286       0.00000000      -0.16326101      -0.13183240       0.00033604
C       12.26684220       4.23804645       0.00000000       0.16413196       0.13243470       0.00023223
C       11.39188644       5.35003009       0.00000000      -0.16431737      -0.13172062      -0.00038722
C        9.98723827       5.14630368       0.00000000       0.16406897       0.13263926       0.00001659
C        9.11228252       6.25828732       0.00000000      -0.16534809      -0.13147457      -0.00027609
C        7.70763434       6.05456091       0.00000000       0.16307224       0.12988056      -0.00006266
C        6.83267859       7.16654455       0.00000000      -0.16289083      -0.13290676       0.00012619
C        5.42803041       6.96281814       0.00000000       0.16470029       0.12922346       0.00032684
C        4.55307466       8.07480178       0.00000000      -0.16213844      -0.13329142       0.00053684
C        3.14842649       7.87107537       0.00000000       0.16398520       0.13236310       0.00127874
C        2.27347073       8.98305901       0.00000000      -0.16465875      -0.13220251       0.00082895
C        0.86882256       8.77933260       0.00000000       0.16132031       0.13155763       0.00076535
C       -0.00613319       9.89131624       0.00000000      -0.16453692      -0.13004156       0.00044995
C       11.91453109       6.66006573       0.00000000       0.16427204       0.13233831      -0.00005689
C       11.03957534       7.77204937       0.00000000      -0.16419047      -0.13178615       0.00071468
C        9.63492716       7.56832296       0.00000000       0.16409916       0.13132899       0.00018374
C        8.75997141       8.68030660       0.00000000      -0.16325605      -0.13216331       0.00071708
C        7.35532324       8.47658019       0.00000000       0.16380080       0.13035397       0.00033415
C        6.48036748       9.58856383       0.00000000      -0.16266000      -0.13240768       0.00081912
106
Lattice="17.17263594207389 -5.032592133233325e-16 0.0 -11.584990458563048 9.086413236264608 0.0 0.0 0.0 100.0" Properties=species:S:1:pos:R:3:REF_forces:R:3 REF_energy=-100580.271279468 pbc="T T T"
C       -3.17874341      -2.00816229       2.95068276       0.11580444       0.03488806       0.22136681
C       -3.70283852      -0.72125741       2.92028213      -0.14033638       0.05097656       0.24883844
C       -2.83121022       0.39417295       2.98604247      -0.01150044       0.01050760       0.20406255
C       -1.41502372       0.19692418       3.08113802      -0.00676909      -0.01132102       0.15581928
C       -0.89643011      -1.13782744       3.10631181       0.01989673       0.02849439       0.11632735
C       -1.79864513      -2.20948562       3.04066730      -0.08041380      -0.04713303       0.21904721
C       -3.36760192       1.70563713       2.96174679      -0.08255568      -0.05198883       0.21519227
C       -2.51449401       2.80056918       3.03284100       0.04786336      -0.00003367       0.16079527
C       -1.13191612       2.61719327       3.12312423      -0.02852723       0.03281702       0.16249854
C       -0.55421914       1.33955143       3.14862669      -0.00492333      -0.01965802       0.09590906
C        0.89542529       1.13770580       3.24230703      -0.05100220      -0.01704257       0.10316193
C        1.41424817      -0.19701804       3.26399222      -0.01360966       0.01556356       0.07595444
C        0.55321315      -1.33967311       3.20000841      -0.03395683       0.01135777       0.12228289
C        2.83090187      -0.39420948       3.35198224      -0.00452943      -0.00538592       0.07291786
C        3.36723013      -1.70568158       3.37723699      -0.02856331       0.02530912       0.03114614
C        2.51330378      -2.80071316       3.31859133       0.00362042      -0.04880005       0.08480876
C        1.13061421      -2.61735086       3.23000888       0.00704373       0.03177314       0.07681747
C        1.79734785       2.20932816       3.31240467       0.04732464      -0.00438797       0.05918763
C        3.17755909       2.00801883       3.40067347      -0.05708794       0.00623041       0.05771825
C        3.70247013       0.72121313       3.41866244       0.02816930      -0.00225539       0.02789517
C        5.17159041       0.54101093       3.50898540      -0.07454001      -0.18677321       0.03854860
N        5.64524928      -0.78549377       3.49971995       0.01772943       0.16381863       0.03116179
C        4.82977012      -1.93351925       3.46674794       0.00933818      -0.19373949       0.06705771
C       -5.17132764      -0.54098010       2.82035699       0.18885349       0.19669688       0.29472906
N       -5.64108591       0.78599907       2.77028456      -0.10215316      -0.14858976       0.23194409
C       -4.82951125       1.93354990       2.86263793       0.07503151       0.15759702       0.25844962
O        5.32392634      -3.05836519       3.50704639      -0.06507885       0.19705470      -0.00884702
O        5.95192339       1.48782077       3.58464478       0.09495245       0.12923551      -0.01070519
O       -5.32586995       3.05812717       2.85580346       0.02993621      -0.14059223       0.15570799
O       -5.95385622      -1.48805885       2.77812369      -0.14982381      -0.16679048       0.26888592
C        7.09841003      -0.98741186       3.56968786      -0.05845690      -0.00550043       0.03352149
C       -7.09111025       0.98830163       2.65261682      -0.02805510       0.01830706       0.87619102
H       -3.86800934      -2.85148799       2.90124634       0.00147246       0.00619538       0.01599077
H       -1.43262819      -3.23448225       3.05932242       0.01694293       0.00753050       0.01415522
H       -2.94917169       3.80030065       3.01489737       0.00271299       0.01217390       0.03071963
H       -0.50189598       3.50340803       3.17443162      -0.02069930       0.01281949       0.01174014
H        2.94763616      -3.80048658       3.34178898      -0.00241999      -0.01025301       0.01498299
H        0.50022748      -3.50361016       3.18427697       0.01425657      -0.01958940       0.01489760
H        1.43096626       3.23428050       3.29929668      -0.02295179       0.00326417       0.00799243
H        3.86648176       2.85130306       3.45532727      -0.00058260      -0.01243579       0.01315422
H        7.42570669      -1.05034371       4.61689684       0.00986164      -0.00717007       0.00290908
H        7.33860154      -1.92710901       3.06526893       0.01104361       0.00178253       0.01870549
H        7.58661506      -0.13177343       3.09565953      -0.06884365      -0.05634124       0.03418423
H       -7.51216832       0.14079909       2.10524763       0.04727027       0.10304533       0.39521432
H       -7.26418327       1.93613131       2.13606438      -0.02220703      -0.09105408       0.40925201
H       -7.55274134       1.03496071       3.64883458       0.04571669       0.03100324       0.10198079
C       -0.00161198      -0.00003396       0.00000000       0.21263430       0.07998798      -0.11739858
C       -0.52736970       1.31359994       0.00000000      -0.22027643      -0.09517309      -0.09261786
C       -1.93244373       1.51436825       0.00000000       0.20479171       0.07732134      -0.17797361
C       -2.45820144       2.82800215       0.00000000      -0.22221536      -0.07311633      -0.15880526
C       -3.86327547       3.02877046       0.00000000       0.20538468       0.11172570      -0.17300897
C       -4.38903318       4.34240435       0.00000000      -0.23071320      -0.08092206      -0.01809753
C       -5.79410721       4.54317266       0.00000000       0.22248348       0.09596016       0.00187099
C       -6.31986492       5.85680656       0.00000000      -0.19696724      -0.12836588      -0.01766172
C       -7.72493895       6.05757487       0.00000000       0.23133477       0.04502790      -0.04198796
C       -8.25069667       7.37120876       0.00000000      -0.22283991      -0.07649963      -0.04163621
C       -9.65577070       7.57197707       0.00000000       0.21963949       0.08067033      -0.08510598
C      -10.18152841       8.88561097       0.00000000      -0.18790467      -0.07613800      -0.07675205
C        2.27441616       0.90860737       0.00000000       0.20906333       0.06604263      -0.07201124
C        1.74865845       2.22224126       0.00000000      -0.21954847      -0.08033596      -0.05870075
C        0.34358442       2.42300957       0.00000000       0.22895570       0.09286416      -0.09207244
C       -0.18217330       3.73664347       0.00000000      -0.20821488      -0.09411166      -0.01242236
C       -1.58724733       3.93741178       0.00000000       0.19251050       0.07606639      -0.06339948
C       -2.11300504       5.25104568       0.00000000      -0.16972366      -0.03241724      -0.00672807
C       -3.51807907       5.45181399       0.00000000       0.17624582       0.04791549       0.00545277
C       -4.04383678       6.76544788       0.00000000      -0.22614430      -0.08171936      -0.00143040
C       -5.44891081       6.96621619       0.00000000       0.21484853       0.05173449      -0.02243106
C       -5.97466852       8.27985009       0.00000000      -0.18914686      -0.07043276      -0.03049124
C       -7.37974256       8.48061840       0.00000000       0.20582238       0.08234433      -0.05693704
C       -7.90550027       9.79425229       0.00000000      -0.21010324      -0.07881602      -0.03295304
C        6.48127605       0.30284649       0.00000000       0.17550984       0.08767778      -0.01105176
C        5.95551833       1.61648038       0.00000000      -0.19815602      -0.05737085      -0.01473866
C        4.55044430       1.81724869       0.00000000       0.22368433       0.09071987      -0.03864003
C        4.02468659       3.13088259       0.00000000      -0.19606627      -0.10469589       0.00041617
C        2.61961256       3.33165090       0.00000000       0.20506060       0.07560636      -0.03496818
C        2.09385485       4.64528479       0.00000000      -0.18815418      -0.08062597      -0.00605177
C        0.68878082       4.84605310       0.00000000       0.18172042       0.10509252       0.00569133
C        0.16302310       6.15968700       0.00000000      -0.21092990      -0.03270975      -0.03586747
C       -1.24205093       6.36045531       0.00000000       0.22028606       0.04119435      -0.00939187
C       -1.76780864       7.67408921       0.00000000      -0.16766612      -0.05053226      -0.06935780
C       -3.17288267       7.87485752       0.00000000       0.23454003       0.04970176      -0.02365550
C       -3.69864038       9.18849141       0.00000000      -0.16942207      -0.01201446      -0.03454258
C        8.75730419       1.21148781       0.00000000       0.12034329       0.08973031      -0.37546883
C        8.23154648       2.52512170       0.00000000      -0.19713351      -0.12400818      -0.01681206
C        6.82647245       2.72589002       0.00000000       0.17756041       0.05891758       0.00755581
C        6.30071473       4.03952391       0.00000000      -0.18369061      -0.08438900      -0.00179849
C        4.89564070       4.24029222       0.00000000       0.21053475       0.06349656       0.00658872
C        4.36988299       5.55392612       0.00000000      -0.19872172      -0.05679169      -0.03010017
C        2.96480896       5.75469443       0.00000000       0.19563725       0.07683574      -0.09531812
C        2.43905125       7.06832832       0.00000000      -0.22306071      -0.06480511      -0.20215325
C        1.03397722       7.26909663       0.00000000       0.18946661       0.02498429      -0.21955349
C        0.50821950       8.58273053       0.00000000      -0.14557671      -0.08488976      -0.26150490
C       -0.89685453       8.78349884       0.00000000       0.18604160       0.07473388      -0.41430046
C       -1.42261224      10.09713274       0.00000000      -0.09573250      -0.07475486      -0.84165426
C       12.96416407       0.60572693       0.00000000       0.21993719       0.07300078      -0.29508772
C       12.43840636       1.91936082       0.00000000      -0.14106380      -0.07277964      -0.22693715
C       11.03333233       2.12012913       0.00000000       0.17679424       0.07113143      -0.36948371
C       10.50757462       3.43376303       0.00000000      -0.17592354      -0.07764336      -0.04693789
C        9.10250059       3.63453134       0.00000000       0.24153089       0.07501643       0.00702348
C        8.57674288       4.94816523       0.00000000      -0.20245236      -0.05139300       0.00380238
C        7.17166884       5.14893354       0.00000000       0.21670871       0.06327004      -0.05007255
C        6.64591113       6.46256744       0.00000000      -0.21448033      -0.06974495      -0.07274077
C        5.24083710       6.66333575       0.00000000       0.22858900       0.05378248      -0.10724705
C        4.71507939       7.97696965       0.00000000      -0.22208634      -0.05455872      -0.10858265
C        3.31000536       8.17773796       0.00000000       0.21188188       0.07489185      -0.20857157
C        2.78424765       9.49137185       0.00000000      -0.18068042      -0.07729586      -0.19945945
72
Lattice="16.093594692167756 3.774300467757041e-16 0.0 0.5646397522404704 4.201443086795638 0.0 0.0 0.0 100.0" Properties=species:S:1:pos:R:3:REF_forces:R:3 REF_energy=-65322.8428069326 pbc="T T T"
C       -2.33206232      -1.31749159       8.64754146      -0.00481168       0.02847047       0.03551753
C       -3.24154018      -0.65477106       7.83183591       0.03958105       0.02215953       0.00586481