------------------------------------------------------------
          Invoking FHI-aims ...

          When using FHI-aims, please cite the following reference:

            Volker Blum, Ralf Gehrke, Felix Hanke, Paula Havu,
            Ville Havu, Xinguo Ren, Karsten Reuter, and Matthias Scheffler,
            'Ab Initio Molecular Simulations with Numeric Atom-Centered Orbitals',
            Computer Physics Communications 180, 2175-2196 (2009)

          In addition, many other developments in FHI-aims are likely important for
          your particular application. A partial list of references is given at the end of
          this file. Thank you for giving credit to the authors of these developments.

          For any questions about FHI-aims, please visit our slack channel at

            https://fhi-aims.slack.com

          and our main development and support site at

            https://aims-git.rz-berlin.mpg.de .

          The latter site, in particular, has a wiki to collect information, as well
          as an issue tracker to log discussions, suggest improvements, and report issues
          or bugs. https://aims-git.rz-berlin.mpg.de is also the main development site
          of the project and all new and updated code versions can be obtained there.
          Please send an email to aims-coordinators@fhi-berlin.mpg.de and we will add
          you to these sites. They are for you and everyone is welcome there.

------------------------------------------------------------



  Date     :  20260210, Time     :  175746.406
  Time zero on CPU 1             :   0.486310000000000E-01  s.
  Internal wall clock time zero  :           539978266.406  s.

  FHI-aims created a unique identifier for this run for later identification
  aims_uuid : 2949FB7D-6B54-468E-ACBD-0BC68F552179

  Build configuration of the current instance of FHI-aims
  -------------------------------------------------------
  FHI-aims version      : 220619
  Commit number         : ae3938acd
  CMake host system     : Linux-5.3.18-150300.59.68-default
  CMake version         : 3.18.4
  Fortran compiler      : /mpcdf/soft/SLE_15/packages/x86_64/intel_oneapi/2021.3/mpi/2021.3.0/bin/mpiifort (Intel) version 20.2.3.20210609
  Fortran compiler flags: -O3 -ip -fp-model precise
  C compiler            : /mpcdf/soft/SLE_15/packages/x86_64/intel/2021.3.0/bin/icc (Intel) version 20.2.3.20210609
  C compiler flags      : -O3 -ip -fp-model precise -std=gnu99
  CUDA compiler         : /mpcdf/soft/SLE_15/packages/x86_64/cuda/11.6.2/bin/nvcc
  CUDA compiler flags   : -O3 -DAdd_ -lcublas
  ELPA2 kernel          : AVX512
  Using MPI
  Using ScaLAPACK
  Using LibXC
  Using CUDA
  Using i-PI
  Using RLSY
  Linking against: /mpcdf/soft/SLE_15/packages/x86_64/cuda/11.6.2/lib64/libcublas.so
                   /mpcdf/soft/SLE_15/packages/x86_64/cuda/11.6.2/lib64/libcudart.so
                   /mpcdf/soft/SLE_15/packages/x86_64/intel_oneapi/2021.3/mkl/latest/lib/intel64/libmkl_intel_lp64.so
                   /mpcdf/soft/SLE_15/packages/x86_64/intel_oneapi/2021.3/mkl/latest/lib/intel64/libmkl_sequential.so
                   /mpcdf/soft/SLE_15/packages/x86_64/intel_oneapi/2021.3/mkl/latest/lib/intel64/libmkl_core.so
                   /mpcdf/soft/SLE_15/packages/x86_64/intel_oneapi/2021.3/mkl/latest/lib/intel64/libmkl_blacs_intelmpi_lp64.so
                   /mpcdf/soft/SLE_15/packages/x86_64/intel_oneapi/2021.3/mkl/latest/lib/intel64/libmkl_scalapack_lp64.so

  Using        1 parallel tasks.
  Task        0 on host adag031 reporting.

  Performing system and environment tests:
  | Environment variable OMP_NUM_THREADS correctly set to 1.
  | Checking for ScaLAPACK...
  | Testing pdtran()...
  | All pdtran() tests passed.

  Obtaining array dimensions for all initial allocations:
  
  -----------------------------------------------------------------------
  Parsing control.in (first pass over file, find array dimensions only).
  The contents of control.in will be repeated verbatim below
  unless switched off by setting 'verbatim_writeout .false.' .
  in the first line of control.in .
  -----------------------------------------------------------------------
  
  #===============================================================================
  # FHI-aims file: /ada/u/lazerpo/projectGenSec/fine-tune/train-loop/atoms/atom_N/control.in
  # Created using the Atomic Simulation Environment (ASE)
  # Tue Feb 10 17:57:45 2026
  #===============================================================================
  xc                                 pbe
  spin                               collinear
  default_initial_moment             hund
  relativistic                       atomic_zora scalar
  compute_forces                     .false.
  sc_accuracy_rho                    1e-05
  sc_iter_limit                      200
  #===============================================================================
  
  ################################################################################
  #
  #  FHI-aims code project
  #  VB, Fritz-Haber Institut, 2009
  #
  #  Suggested "light" defaults for N atom (to be pasted into control.in file)
  #  Be sure to double-check any results obtained with these settings for post-processing,
  #  e.g., with the "tight" defaults and larger basis sets.
  #
  ################################################################################
    species        N
  #     global species definitions
      nucleus             7
      mass                14.0067
  #
      l_hartree           4
  #
      cut_pot             3.5  1.5  1.0
      basis_dep_cutoff    1e-4
  #
      radial_base         35 5.0
      radial_multiplier   1
      angular_grids       specified
        division   0.2599   50
        division   0.4601  110
        division   0.5885  194
        division   0.6503  302
  #      division   0.6939  434
  #      division   0.7396  590
  #      division   0.7632  770
  #      division   0.8122  974
  #      division   1.1604 1202
  #      outer_grid  974
        outer_grid  302
  ################################################################################
  #
  #  Definition of "minimal" basis
  #
  ################################################################################
  #     valence basis states
      valence      2  s   2.
      valence      2  p   3.
  #     ion occupancy
      ion_occ      2  s   1.
      ion_occ      2  p   2.
  ################################################################################
  #
  #  Suggested additional basis functions. For production calculations,
  #  uncomment them one after another (the most important basis functions are
  #  listed first).
  #
  #  Constructed for dimers: 1.0 A, 1.1 A, 1.5 A, 2.0 A, 3.0 A
  #
  ################################################################################
  #  "First tier" - improvements: -1193.42 meV to -220.60 meV
       hydro 2 p 1.8
       hydro 3 d 6.8
       hydro 3 s 5.8
  #  "Second tier" - improvements: -80.21 meV to -6.86 meV
  #     hydro 4 f 10.8
  #     hydro 3 p 5.8
  #     hydro 1 s 0.8
  #     hydro 5 g 16
  #     hydro 3 d 4.9
  #  "Third tier" - improvements: -4.29 meV to -0.53 meV
  #     hydro 3 s 16
  #     ionic 2 p auto
  #     hydro 3 d 6.6
  #     hydro 4 f 11.6
  #  "Fourth tier" - improvements: -0.75 meV to -0.25 meV
  #     hydro 2 p 4.5
  #     hydro 2 s 2.4
  #     hydro 5 g 14.4
  #     hydro 4 d 14.4
  #     hydro 4 f 16.8
  # Further basis functions - -0.21 meV and below
  #     hydro 3 p 14.8
  #     hydro 3 s 4.4
  #     hydro 3 d 19.6
  #     hydro 5 g 12.8
  
  -----------------------------------------------------------------------
  Completed first pass over input file control.in .
  -----------------------------------------------------------------------
  
  
  -----------------------------------------------------------------------
  Parsing geometry.in (first pass over file, find array dimensions only).
  The contents of geometry.in will be repeated verbatim below
  unless switched off by setting 'verbatim_writeout .false.' .
  in the first line of geometry.in .
  -----------------------------------------------------------------------
  
  #=======================================================
  # FHI-aims file: /ada/u/lazerpo/projectGenSec/fine-tune/train-loop/atoms/atom_N/geometry.in
  # Created using the Atomic Simulation Environment (ASE)
  # Tue Feb 10 17:57:45 2026
  #=======================================================
  atom 0.0000000000000000 0.0000000000000000 0.0000000000000000 N
  
  -----------------------------------------------------------------------
  Completed first pass over input file geometry.in .
  -----------------------------------------------------------------------
  

  Basic array size parameters:
  | Number of species                 :        1
  | Number of atoms                   :        1
  | Max. basis fn. angular momentum   :        2
  | Max. atomic/ionic basis occupied n:        2
  | Max. number of basis fn. types    :        2
  | Max. radial fns per species/type  :        3
  | Max. logarithmic grid size        :     1290
  | Max. radial integration grid size :       35
  | Max. angular integration grid size:      302
  | Max. angular grid division number :        8
  | Radial grid for Hartree potential :     1290
  | Number of spin channels           :        2

------------------------------------------------------------
          Reading file control.in.
------------------------------------------------------------
  XC: Using PBE gradient-corrected functionals.
  Spin treatment: Spin density functional theory - collinear spins.
  Initial spin moment per atom set according to Hund's rules.
  Scalar relativistic treatment of kinetic energy: on-site free-atom approximation to ZORA.
  Forces will not be computed.
  Convergence accuracy of self-consistent charge density:  0.1000E-04
  Maximum number of s.-c. iterations  :   200
 
  Reading configuration options for species N                   .
  | Found nuclear charge :   7.0000
  | Found atomic mass :    14.0067000000000      amu
  | Found l_max for Hartree potential  :   4
  | Found cutoff potl. onset [A], width [A], scale factor :    3.50000    1.50000    1.00000
  | Threshold for basis-dependent cutoff potential is   0.100000E-03
  | Found data for basic radial integration grid :    35 points, outermost radius =    5.000 A
  | Found multiplier for basic radial grid :   1
  | Found angular grid specification: user-specified.
  | Specified grid contains     5 separate shells.
  | Check grid settings after all constraints further below.
  | Found free-atom valence shell :  2 s   2.000
  | Found free-atom valence shell :  2 p   3.000
  | No ionic wave fns used. Skipping ion_occ.
  | No ionic wave fns used. Skipping ion_occ.
  | Found hydrogenic basis function :  2 p   1.800
  | Found hydrogenic basis function :  3 d   6.800
  | Found hydrogenic basis function :  3 s   5.800
  Species N                   : Missing cutoff potential type.
  Defaulting to exp(1/x)/(1-x)^2 type cutoff potential.
  Species N : No 'logarithmic' tag. Using default grid for free atom:
  | Default logarithmic grid data [bohr] : 0.1000E-03 0.1000E+03 0.1012E+01
  Species N : On-site basis accuracy parameter (for Gram-Schmidt orthonormalisation) not specified.
  Using default value basis_acc =  0.1000000E-03.
  Species N                   : Using default innermost maximum threshold i_radial=  2 for radial functions.
  Species N                   : Default cutoff onset for free atom density etc. : 0.35000000E+01 AA.
  Species N                   : Basic radial grid will be enhanced according to radial_multiplier =   1, to contain    35 grid points.
 
  Finished reading input file 'control.in'.
 
------------------------------------------------------------


------------------------------------------------------------
          Reading geometry description geometry.in.
------------------------------------------------------------
  | Isolated single atom, no quantum-mechanical atoms close by.
  Input structure read successfully.
  The structure contains        1 atoms,  and a total of          7.000 electrons.

  Input geometry:
  | No unit cell requested.
  | Atomic structure:
  |       Atom                x [A]            y [A]            z [A]
  |    1: Species N             0.00000000        0.00000000        0.00000000

  Initial moments and charges:
  |  Atom   Moment         Charge        Species
  |     1  (Hund's rule)   0.000000E+00   N

 
  Finished reading input file 'geometry.in'.
 

 
  Consistency checks for stacksize environment parameter are next.
 
  | Maximum stacksize for task 0: unlimited
  | Current stacksize for task 0: unlimited
 
  Consistency checks for the contents of control.in are next.
 
  MPI_IN_PLACE appears to work with this MPI implementation.
  | Keeping use_mpi_in_place .true. (see manual).
  Target number of points in a grid batch is not set. Defaulting to  100
  Method for grid partitioning is not set. Defaulting to parallel hash+maxmin partitioning.
  Batch size limit is not set. Defaulting to    200
  By default, will store active basis functions for each batch.
  If in need of memory, prune_basis_once .false. can be used to disable this option.
  communication_type for Hartree potential was not specified.
  Defaulting to calc_hartree .
  Defaulting to Pulay charge density mixer.
  Pulay mixer: Number of relevant iterations not set.
  Defaulting to    8 iterations.
  Pulay mixer: Number of initial linear mixing iterations not set.
  Defaulting to    0 iterations.
  Work space size for distributed Hartree potential not set.
  Defaulting to   0.200000E+03 MB.
  Mixing parameter for charge density mixing has not been set.
  Using default: charge_mix_param =     0.0500.
  The mixing parameter will be adjusted in iteration number     2 of the first full s.c.f. cycle only.
  Mixing parameter for spin density mixing has not been set.
  Using charge_mix_param as default:     0.0500.
  Algorithm-dependent basis array size parameters:
  | n_max_pulay                         :        8
  Presetting      1001 iterations before the initial mixing cycle
  is restarted anyway using the sc_init_iter criterion / keyword.
  Presetting a factor      1.000 between actual scf density residual
  and density convergence criterion sc_accuracy_rho below which sc_init_iter
  takes no effect.
  Geometry relaxation not requested: no relaxation will be performed.
  No accuracy limit for integral partition fn. given. Defaulting to  0.1000E-14.
  No threshold value for u(r) in integrations given. Defaulting to  0.1000E-05.
  No occupation type (smearing scheme) given. Defaulting to Gaussian broadening, width =  0.1000E-01 eV.
  The width will be adjusted in iteration number     2 of the first full s.c.f. cycle only.
  S.C.F. convergence parameters will be adjusted in iteration number     2 of the first full s.c.f. cycle only.
  No accuracy for occupation numbers given. Defaulting to  0.1000E-12.
  No threshold value for occupation numbers given. Defaulting to  0.0000E+00.
  No accuracy for fermi level given. Defaulting to  0.1000E-19.
  Maximum # of iterations to find E_F not set. Defaulting to  200.
  Preferred method for the eigenvalue solver ('KS_method') not specified in 'control.in'.
  Defaulting to serial version LAPACK (via ELSI).
  Will not use alltoall communication since running on < 1024 CPUs.
  Threshold for basis singularities not set.
  Default threshold for basis singularities:  0.1000E-04
  partition_type (choice of integration weights) for integrals was not specified.
  | Using a version of the partition function of Stratmann and coworkers ('stratmann_sparse').
  | At each grid point, the set of atoms used to build the partition table is smoothly restricted to
  | only those atoms whose free-atom density would be non-zero at that grid point.
  Partitioning for Hartree potential was not defined. Using partition_type for integrals.
  | Adjusted default value of keyword multip_moments_threshold to:       0.10000000E-11
  | This value may affect high angular momentum components of the Hartree potential in periodic systems.
  No q(lm)/r^(l+1) cutoff set for long-range Hartree potential.
  | Using default value of  0.100000E-09 .
  | Verify using the multipole_threshold keyword.
  Defaulting to new monopole extrapolation.
  Density update method: automatic selection selected.
  Charge integration errors on the 3D integration grid will be compensated
  by explicit normalization and distribution of residual charges.
  Use the "compensate_multipole_errors" flag to change this behaviour.
  Set 'collect_eigenvectors' to be '.true.' for all serial calculations. This is mandatory.
  Set 'collect_eigenvectors' to be '.true.' for use_density_matrix .false.
  Set 'collect_eigenvectors' to be '.true.' for KS_method lapack_fast and serial.
 
  Consistency checks for the contents of geometry.in are next.
 
  Number of empty states per atom not set in control.in - providing a guess from actual geometry.
  | Total number of empty states used during s.c.f. cycle:        3
  If you use a very high smearing, use empty_states (per atom!) in control.in to increase this value.

  Structure-dependent array size parameters: 
  | Number of distinct atom types in initial rho :        1
  | Maximum number of distinct radial functions  :        6
  | Maximum number of basis functions            :       14
  | Number of Kohn-Sham states (occupied + empty):        7
------------------------------------------------------------

------------------------------------------------------------
          Preparing all fixed parts of the calculation.
------------------------------------------------------------
  Determining machine precision:
    2.225073858507201E-308
  Setting up grids for atomic and cluster calculations.

  Creating wave function, potential, and density for free atoms.
  Runtime choices for atomic solver:
  | atomic solver xc        : PBE
  | compute density gradient: 1
  | compute kinetic density : F

  Species: N

  List of occupied orbitals and eigenvalues:
    n    l              occ      energy [Ha]    energy [eV]
    1    0           2.0000       -14.143973      -384.8771
    2    0           2.0000        -0.682008       -18.5584
    2    1           3.0000        -0.259605        -7.0642

  Spin-polarized or charged system:
  Charge density initialized according to selected moments and charges.

  Creating spin-polarized density from free atoms.

  Species: N
  Charge:   0.000000
  applying Hund's rules ...

  List of occupied orbitals and eigenvalues:
    n    l      energy [Ha]    energy [eV]    occupation
  Spin-up
    1    0       -14.124443      -384.3457     1.00000000
    2    0        -0.729959       -19.8632     1.00000000
    2    1        -0.304445        -8.2844     3.00000000
  Spin-down
    1    0       -14.068546      -382.8246     1.00000000
    2    0        -0.561854       -15.2888     1.00000000
    2    1        -0.150951        -4.1076     0.00000000


  Adding cutoff potential to free-atom effective potential.
  Creating fixed part of basis set: Ionic, confined, hydrogenic.
 
  N                    hydrogenic:
 
  List of hydrogenic basis orbitals: 
    n    l      effective z      eigenvalue [eV]  inner max. [A]     outer max. [A]     outer radius [A]   
    2    1         1.800000       -10.9749           1.177451           1.177451           4.573712
    3    2         6.800000       -69.9026           0.704619           0.704619           3.538137
    3    0         5.800000       -50.8545           0.067388           1.191934           4.250239
 
  Creating atomic-like basis functions for current effective potential.

  Species N                   :

  List of atomic basis orbitals and eigenvalues:
    n    l      energy [Ha]    energy [eV]    outer radius [A]
    1    0       -14.143973      -384.8771       1.637919
    2    0        -0.682008       -18.5584       4.463241
    2    1        -0.259605        -7.0642       4.518138

  Assembling full basis from fixed parts.
  | Species N :   atomic orbital   1 s accepted.
  | Species N :    hydro orbital   3 s accepted.
  | Species N :   atomic orbital   2 s accepted.
  | Species N :   atomic orbital   2 p accepted.
  | Species N :    hydro orbital   2 p accepted.
  | Species N :    hydro orbital   3 d accepted.
 
  Basis size parameters after reduction:
  | Total number of radial functions:        6
  | Total number of basis functions :       14
 
  Per-task memory consumption for arrays in subroutine allocate_ext:
  |           1.982108MB.
  Testing on-site integration grid accuracy.
  |  Species  Function  <phi|h_atom|phi> (log., in eV)  <phi|h_atom|phi> (rad., in eV)
           1        1               -384.8770852097               -384.8770238657
           1        2                 12.5754985572                 12.5755902269
           1        3                -15.7673946340                -15.7673131149
           1        4                 -7.0647024644                 -7.0651952861
           1        5                  8.8117910312                  8.7928686445
           1        6                 35.9641313274                 35.9643080893

  Preparing densities etc. for the partition functions (integrals / Hartree potential).

  Preparations completed.
  max(cpu_time)          :      0.134 s.
  Wall clock time (cpu1) :      0.134 s.
------------------------------------------------------------

  Initializing index lists of integration centers etc. from given atomic structure:
  | Number of centers in hartree potential         :         1
  | Number of centers in hartree multipole         :         1
  | Number of centers in electron density summation:         1
  | Number of centers in basis integrals           :         1
  | Number of centers in integrals                 :         1
  | Number of centers in hamiltonian               :         1

------------------------------------------------------------
          Begin self-consistency loop: Initialization.

          Date     :  20260210, Time     :  175746.559
------------------------------------------------------------
  Partitioning the integration grid into batches with parallel hashing+maxmin method.
  | Number of batches:       95
  | Maximal batch size:     104
  | Minimal batch size:      50
  | Average batch size:      66.421
  | Standard deviation of batch sizes:      18.146

  Integration load balanced across     1 MPI tasks.
  Work distribution over tasks is as follows:
  Task     0 has       6310 integration points.
  Initializing partition tables, free-atom densities, potentials, etc. across the integration grid (initialize_grid_storage).
  | initialize_grid_storage: Actual outermost partition radius vs. multipole_radius_free
  | (-- VB: in principle, multipole_radius_free should be larger, hence this output)
  | Species        1: Confinement radius =              4.999999999999999 AA, multipole_radius_free =              5.043624274424571 AA.
  | Species        1: outer_partition_radius set to              5.043624274424571 AA .
  | The sparse table of interatomic distances needs          0.01 kbyte instead of         0.01 kbyte of memory.
  | Net number of integration points:     6310
  | of which are non-zero points    :     6310
  Renormalizing the initial density to the exact electron count on the 3D integration grid.
  | Initial density: Formal number of electrons (from input files) :       7.0000000000
  | Integrated number of electrons on 3D grid     :       6.9999724609
  | Charge integration error                      :      -0.0000275391
  | Normalization factor for density and gradient :       1.0000039342
  Renormalizing the free-atom superposition density to the exact electron count on the 3D integration grid.
  | Formal number of electrons (from input files) :       7.0000000000
  | Integrated number of electrons on 3D grid     :       6.9999556373
  | Charge integration error                      :      -0.0000443627
  | Normalization factor for density and gradient :       1.0000063376
  Obtaining max. number of non-zero basis functions in each batch (get_n_compute_maxes).
  | Maximal number of non-zero basis functions:       14 in task     0
  Selecting the method for density update.
  Loop over occupied states selected for charge density update.
  Initialize hartree_potential_storage
  Max. number of atoms included in rho_multipole:            1

  Evaluating partitioned Hartree potential by multipole expansion.
  | Original multipole sum: apparent total charge =   0.495658E-14
  | Sum of charges compensated after spline to logarithmic grids =   0.430435E-04
  | Analytical far-field extrapolation by fixed multipoles:
  | Hartree multipole sum: apparent total charge =   0.495400E-14
  Summing up the Hartree potential.
  Time summed over all CPUs for potential: real work        0.001 s, elapsed        0.001 s
  | RMS charge density error from multipole expansion :   0.751518E-16

  Allocating        0.001 MB for KS_eigenvector
  Integrating Hamiltonian matrix: batch-based integration.
  Time summed over all CPUs for integration: real work        0.010 s, elapsed        0.010 s
  Integrating overlap matrix.
  Time summed over all CPUs for integration: real work        0.002 s, elapsed        0.002 s

  Updating Kohn-Sham eigenvalues and eigenvectors using ELSI and the (modified) LAPACK eigensolver.
  Overlap matrix is not singular
  | Lowest and highest eigenvalues :  0.9995E+00,  0.1000E+01
  Finished singularity check of overlap matrix
  | Time :     0.000 s
  Starting LAPACK eigensolver
  Finished Cholesky decomposition
  | Time :     0.000 s
  Finished transformation to standard eigenproblem
  | Time :     0.000 s
  Finished solving standard eigenproblem
  | Time :     0.001 s
  Finished back-transformation of eigenvectors
  | Time :     0.000 s

  Obtaining occupation numbers and electronic chemical potential using ELSI.
  | Note that, for insulating systems, the printed 'chemical potential' value is not uniquely defined.
  | It can be anywhere in the energy gap, as long as it correctly separates occupied and unoccupied states.
  | In systems with a gap, the physically relevant chemical potential is the VBM or HOMO.

  | Chemical potential (Fermi level):    -7.87078272 eV
  Writing Kohn-Sham eigenvalues.

  Spin-up eigenvalues:

  State    Occupation    Eigenvalue [Ha]    Eigenvalue [eV]
      1       1.00000         -14.124459         -384.34609
      2       1.00000          -0.729962          -19.86327
      3       1.00000          -0.304426           -8.28384
      4       1.00000          -0.304426           -8.28384
      5       1.00000          -0.304426           -8.28384
      6       0.00000           0.300895            8.18778
      7       0.00000           0.300895            8.18778

  Spin-down eigenvalues:

  State    Occupation    Eigenvalue [Ha]    Eigenvalue [eV]
      1       1.00000         -14.068592         -382.82587
      2       1.00000          -0.561728          -15.28539
      3       0.00000          -0.150614           -4.09840
      4       0.00000          -0.150614           -4.09840
      5       0.00000          -0.150614           -4.09840
      6       0.00000           0.391174           10.64440
      7       0.00000           0.391174           10.64440

  Current spin moment of the entire structure :
  | N = N_up - N_down :    3.00
  | S                 :    1.50
  | J                 :    4.00

  Highest occupied state (VBM) at     -8.28384269 eV
  | Occupation number:      1.00000000
  | Spin channel:        1

  Lowest unoccupied state (CBM) at    -4.09840432 eV
  | Occupation number:      0.00000000
  | Spin channel:        2

  Overall HOMO-LUMO gap:      4.18543837 eV.
  Calculating total energy contributions from superposition of free atom densities.

  Total energy components:
  | Sum of eigenvalues            :         -30.39801745 Ha        -827.17214094 eV
  | XC energy correction          :          -6.71572308 Ha        -182.74412304 eV
  | XC potential correction       :           8.62558723 Ha         234.71417064 eV
  | Free-atom electrostatic energy:         -25.89187162 Ha        -704.55367396 eV
  | Hartree energy correction     :          -0.20401952 Ha          -5.55165347 eV
  | Entropy correction            :           0.00000000 Ha           0.00000000 eV
  | ---------------------------
  | Total energy                  :         -54.58404444 Ha       -1485.30742077 eV
  | Total energy, T -> 0          :         -54.58404444 Ha       -1485.30742077 eV  <-- do not rely on this value for anything but (periodic) metals
  | Electronic free energy        :         -54.58404444 Ha       -1485.30742077 eV

  Derived energy quantities:
  | Kinetic energy                :          54.49212530 Ha        1482.80617389 eV
  | Electrostatic energy          :        -102.36044666 Ha       -2785.36947163 eV
  | Energy correction for multipole
  | error in Hartree potential    :          -0.00000000 Ha          -0.00000000 eV
  | Sum of eigenvalues per atom                           :        -827.17214094 eV
  | Total energy (T->0) per atom                          :       -1485.30742077 eV  <-- do not rely on this value for anything but (periodic) metals
  | Electronic free energy per atom                       :       -1485.30742077 eV

  End scf initialization - timings             :  max(cpu_time)    wall_clock(cpu1)
  | Time for scf. initialization                :        0.031 s           0.031 s
  | Boundary condition initialization           :        0.000 s           0.000 s
  | Integration                                 :        0.013 s           0.013 s
  | Solution of K.-S. eqns.                     :        0.001 s           0.001 s
  | Grid partitioning                           :        0.006 s           0.006 s
  | Preloading free-atom quantities on grid     :        0.006 s           0.006 s
  | Free-atom superposition energy              :        0.005 s           0.005 s
  | Total energy evaluation                     :        0.000 s           0.000 s

  Partial memory accounting:
  | Current value for overall tracked memory usage:
  |   Minimum:        0.004 MB (on task 0)
  |   Maximum:        0.004 MB (on task 0)
  |   Average:        0.004 MB
  | Peak value for overall tracked memory usage:
  |   Minimum:        0.217 MB (on task 0 after allocating grid_partition)
  |   Maximum:        0.217 MB (on task 0 after allocating grid_partition)
  |   Average:        0.217 MB
  | Largest tracked array allocation so far:
  |   Minimum:        0.144 MB (all_coords on task 0)
  |   Maximum:        0.144 MB (all_coords on task 0)
  |   Average:        0.144 MB
  Note:  These values currently only include a subset of arrays which are explicitly tracked.
  The "true" memory usage will be greater.
------------------------------------------------------------
  Evaluating new KS density.
  Integration grid: deviation in total charge (<rho> - N_e) =   1.953993E-14
  | <rho_up-rho_dn> = N_up-N_dn =      3.0000; <|rho_up-rho_dn|> =      3.0000

  Time for density update prior                :  max(cpu_time)    wall_clock(cpu1)
  | self-consistency iterative process          :        0.007 s           0.007 s

------------------------------------------------------------
          Begin self-consistency iteration #    1

  Date     :  20260210, Time     :  175746.597
------------------------------------------------------------
  Pulay mixing of updated and previous charge densities.
  Renormalizing the density to the exact electron count on the 3D integration grid.
  | Formal number of electrons (from input files) :       7.0000000000
  | Integrated number of electrons on 3D grid     :       7.0000000000
  | Charge integration error                      :      -0.0000000000
  | Normalization factor for density and gradient :       1.0000000000

  Evaluating partitioned Hartree potential by multipole expansion.
  | Original multipole sum: apparent total charge =  -0.221324E-13
  | Sum of charges compensated after spline to logarithmic grids =   0.425514E-04
  | Analytical far-field extrapolation by fixed multipoles:
  | Hartree multipole sum: apparent total charge =  -0.221786E-13
  Summing up the Hartree potential.
  Time summed over all CPUs for potential: real work        0.002 s, elapsed        0.002 s
  | RMS charge density error from multipole expansion :   0.442828E-15

  Integrating Hamiltonian matrix: batch-based integration.
  Time summed over all CPUs for integration: real work        0.010 s, elapsed        0.010 s

  Updating Kohn-Sham eigenvalues and eigenvectors using ELSI and the (modified) LAPACK eigensolver.
  Starting LAPACK eigensolver
  Finished Cholesky decomposition
  | Time :     0.000 s
  Finished transformation to standard eigenproblem
  | Time :     0.000 s
  Finished solving standard eigenproblem
  | Time :     0.000 s
  Finished back-transformation of eigenvectors
  | Time :     0.000 s

  Obtaining occupation numbers and electronic chemical potential using ELSI.
  | Note that, for insulating systems, the printed 'chemical potential' value is not uniquely defined.
  | It can be anywhere in the energy gap, as long as it correctly separates occupied and unoccupied states.
  | In systems with a gap, the physically relevant chemical potential is the VBM or HOMO.

  | Chemical potential (Fermi level):    -7.86973819 eV
  Writing Kohn-Sham eigenvalues.

  Spin-up eigenvalues:

  State    Occupation    Eigenvalue [Ha]    Eigenvalue [eV]
      1       1.00000         -14.124376         -384.34384
      2       1.00000          -0.729994          -19.86414
      3       1.00000          -0.304461           -8.28480
      4       1.00000          -0.304461           -8.28480
      5       1.00000          -0.304461           -8.28480
      6       0.00000           0.300858            8.18676
      7       0.00000           0.300858            8.18676

  Spin-down eigenvalues:

  State    Occupation    Eigenvalue [Ha]    Eigenvalue [eV]
      1       1.00000         -14.068403         -382.82072
      2       1.00000          -0.561806          -15.28752
      3       0.00000          -0.150674           -4.10004
      4       0.00000          -0.150674           -4.10004
      5       0.00000          -0.150674           -4.10004
      6       0.00000           0.391211           10.64538
      7       0.00000           0.391211           10.64538

  Current spin moment of the entire structure :
  | N = N_up - N_down :    3.00
  | S                 :    1.50
  | J                 :    4.00

  Highest occupied state (VBM) at     -8.28479753 eV
  | Occupation number:      1.00000000
  | Spin channel:        1

  Lowest unoccupied state (CBM) at    -4.10003911 eV
  | Occupation number:      0.00000000
  | Spin channel:        2

  Overall HOMO-LUMO gap:      4.18475842 eV.

  Total energy components:
  | Sum of eigenvalues            :         -30.39796099 Ha        -827.17060454 eV
  | XC energy correction          :          -6.71568473 Ha        -182.74307936 eV
  | XC potential correction       :           8.62553628 Ha         234.71278422 eV
  | Free-atom electrostatic energy:         -25.89187162 Ha        -704.55367396 eV
  | Hartree energy correction     :          -0.20406416 Ha          -5.55286828 eV
  | Entropy correction            :           0.00000000 Ha           0.00000000 eV
  | ---------------------------
  | Total energy                  :         -54.58404522 Ha       -1485.30744191 eV
  | Total energy, T -> 0          :         -54.58404522 Ha       -1485.30744191 eV  <-- do not rely on this value for anything but (periodic) metals
  | Electronic free energy        :         -54.58404522 Ha       -1485.30744191 eV

  Derived energy quantities:
  | Kinetic energy                :          54.49342281 Ha        1482.84148076 eV
  | Electrostatic energy          :        -102.36178329 Ha       -2785.40584332 eV
  | Energy correction for multipole
  | error in Hartree potential    :           0.00000000 Ha           0.00000000 eV
  | Sum of eigenvalues per atom                           :        -827.17060454 eV
  | Total energy (T->0) per atom                          :       -1485.30744191 eV  <-- do not rely on this value for anything but (periodic) metals
  | Electronic free energy per atom                       :       -1485.30744191 eV
  Evaluating new KS density.
  Integration grid: deviation in total charge (<rho> - N_e) =   3.552714E-15
  | <rho_up-rho_dn> = N_up-N_dn =      3.0000; <|rho_up-rho_dn|> =      3.0000

  Self-consistency convergence accuracy:
  | Change of charge/spin density :  0.4189E-02  0.1141E-01
  | Change of unmixed KS charge/spin density :  0.7263E+01  0.6151E+00
  | Change of sum of eigenvalues  :  0.1536E-02 eV
  | Change of total energy        : -0.2114E-04 eV


------------------------------------------------------------
  End self-consistency iteration #     1       :  max(cpu_time)    wall_clock(cpu1)
  | Time for this iteration                     :        0.020 s           0.020 s
  | Charge density update                       :        0.005 s           0.005 s
  | Density mixing                              :        0.001 s           0.002 s
  | Hartree multipole update                    :        0.001 s           0.000 s
  | Hartree multipole summation                 :        0.002 s           0.002 s
  | Integration                                 :        0.010 s           0.010 s
  | Solution of K.-S. eqns.                     :        0.000 s           0.000 s
  | Total energy evaluation                     :        0.000 s           0.001 s

  Partial memory accounting:
  | Current value for overall tracked memory usage:
  |   Minimum:        0.004 MB (on task 0)
  |   Maximum:        0.004 MB (on task 0)
  |   Average:        0.004 MB
  | Peak value for overall tracked memory usage:
  |   Minimum:        0.217 MB (on task 0 after allocating grid_partition)
  |   Maximum:        0.217 MB (on task 0 after allocating grid_partition)
  |   Average:        0.217 MB
  | Largest tracked array allocation so far:
  |   Minimum:        0.144 MB (all_coords on task 0)
  |   Maximum:        0.144 MB (all_coords on task 0)
  |   Average:        0.144 MB
  Note:  These values currently only include a subset of arrays which are explicitly tracked.
  The "true" memory usage will be greater.
------------------------------------------------------------

------------------------------------------------------------
          Begin self-consistency iteration #    2

  Date     :  20260210, Time     :  175746.617
------------------------------------------------------------
  Pulay mixing of updated and previous charge densities.
  Renormalizing the density to the exact electron count on the 3D integration grid.
  | Formal number of electrons (from input files) :       7.0000000000
  | Integrated number of electrons on 3D grid     :       7.0000000000
  | Charge integration error                      :       0.0000000000
  | Normalization factor for density and gradient :       1.0000000000

  Evaluating partitioned Hartree potential by multipole expansion.
  | Original multipole sum: apparent total charge =   0.896057E-13
  | Sum of charges compensated after spline to logarithmic grids =   0.332421E-04
  | Analytical far-field extrapolation by fixed multipoles:
  | Hartree multipole sum: apparent total charge =   0.895996E-13
  Summing up the Hartree potential.
  Time summed over all CPUs for potential: real work        0.002 s, elapsed        0.002 s
  | RMS charge density error from multipole expansion :   0.198412E-14

  Integrating Hamiltonian matrix: batch-based integration.
  Time summed over all CPUs for integration: real work        0.010 s, elapsed        0.010 s

  Updating Kohn-Sham eigenvalues and eigenvectors using ELSI and the (modified) LAPACK eigensolver.
  Starting LAPACK eigensolver
  Finished Cholesky decomposition
  | Time :     0.000 s
  Finished transformation to standard eigenproblem
  | Time :     0.000 s
  Finished solving standard eigenproblem
  | Time :     0.000 s
  Finished back-transformation of eigenvectors
  | Time :     0.000 s

  Obtaining occupation numbers and electronic chemical potential using ELSI.
  | Note that, for insulating systems, the printed 'chemical potential' value is not uniquely defined.
  | It can be anywhere in the energy gap, as long as it correctly separates occupied and unoccupied states.
  | In systems with a gap, the physically relevant chemical potential is the VBM or HOMO.

  | Chemical potential (Fermi level):    -7.84690324 eV
  Current spin moment of the entire structure :
  | N = N_up - N_down :    3.00
  | S                 :    1.50
  | J                 :    4.00

  Highest occupied state (VBM) at     -8.30307645 eV
  | Occupation number:      1.00000000
  | Spin channel:        1

  Lowest unoccupied state (CBM) at    -4.13074089 eV
  | Occupation number:      0.00000000
  | Spin channel:        2

  Overall HOMO-LUMO gap:      4.17233556 eV.

  Checking to see if s.c.f. parameters should be adjusted.
  The system likely has a gap. Increased the default Pulay mixing parameter (charge_mix_param). Value:   0.200000 .
  Kept the default occupation width. Value:   0.010000 eV.

  Total energy components:
  | Sum of eigenvalues            :         -30.39699208 Ha        -827.14423923 eV
  | XC energy correction          :          -6.71495611 Ha        -182.72325264 eV
  | XC potential correction       :           8.62456889 Ha         234.68646016 eV
  | Free-atom electrostatic energy:         -25.89187162 Ha        -704.55367396 eV
  | Hartree energy correction     :          -0.20480186 Ha          -5.57294223 eV
  | Entropy correction            :           0.00000000 Ha           0.00000000 eV
  | ---------------------------
  | Total energy                  :         -54.58405279 Ha       -1485.30764790 eV
  | Total energy, T -> 0          :         -54.58405279 Ha       -1485.30764790 eV  <-- do not rely on this value for anything but (periodic) metals
  | Electronic free energy        :         -54.58405279 Ha       -1485.30764790 eV

  Derived energy quantities:
  | Kinetic energy                :          54.51780890 Ha        1483.50506006 eV
  | Electrostatic energy          :        -102.38690557 Ha       -2786.08945532 eV
  | Energy correction for multipole
  | error in Hartree potential    :          -0.00000000 Ha          -0.00000000 eV
  | Sum of eigenvalues per atom                           :        -827.14423923 eV
  | Total energy (T->0) per atom                          :       -1485.30764790 eV  <-- do not rely on this value for anything but (periodic) metals
  | Electronic free energy per atom                       :       -1485.30764790 eV
  Evaluating new KS density.
  Integration grid: deviation in total charge (<rho> - N_e) =   6.217249E-15
  | <rho_up-rho_dn> = N_up-N_dn =      3.0000; <|rho_up-rho_dn|> =      3.0000

  Self-consistency convergence accuracy:
  | Change of charge/spin density :  0.3975E-02  0.1084E-01
  | Change of unmixed KS charge/spin density :  0.1191E-04  0.9613E-05
  | Change of sum of eigenvalues  :  0.2637E-01 eV
  | Change of total energy        : -0.2060E-03 eV


------------------------------------------------------------
  End self-consistency iteration #     2       :  max(cpu_time)    wall_clock(cpu1)
  | Time for this iteration                     :        0.019 s           0.020 s
  | Charge density update                       :        0.005 s           0.006 s
  | Density mixing                              :        0.001 s           0.002 s
  | Hartree multipole update                    :        0.001 s           0.000 s
  | Hartree multipole summation                 :        0.002 s           0.002 s
  | Integration                                 :        0.010 s           0.010 s
  | Solution of K.-S. eqns.                     :        0.000 s           0.000 s
  | Total energy evaluation                     :        0.000 s           0.000 s

  Partial memory accounting:
  | Current value for overall tracked memory usage:
  |   Minimum:        0.005 MB (on task 0)
  |   Maximum:        0.005 MB (on task 0)
  |   Average:        0.005 MB
  | Peak value for overall tracked memory usage:
  |   Minimum:        0.217 MB (on task 0 after allocating grid_partition)
  |   Maximum:        0.217 MB (on task 0 after allocating grid_partition)
  |   Average:        0.217 MB
  | Largest tracked array allocation so far:
  |   Minimum:        0.144 MB (all_coords on task 0)
  |   Maximum:        0.144 MB (all_coords on task 0)
  |   Average:        0.144 MB
  Note:  These values currently only include a subset of arrays which are explicitly tracked.
  The "true" memory usage will be greater.
------------------------------------------------------------

------------------------------------------------------------
          Begin self-consistency iteration #    3

  Date     :  20260210, Time     :  175746.637
------------------------------------------------------------
  Pulay mixing of updated and previous charge densities.
  Renormalizing the density to the exact electron count on the 3D integration grid.
  | Formal number of electrons (from input files) :       7.0000000000
  | Integrated number of electrons on 3D grid     :       7.0000000000
  | Charge integration error                      :       0.0000000000
  | Normalization factor for density and gradient :       1.0000000000

  Evaluating partitioned Hartree potential by multipole expansion.
  | Original multipole sum: apparent total charge =   0.287749E-13
  | Sum of charges compensated after spline to logarithmic grids =   0.331142E-04
  | Analytical far-field extrapolation by fixed multipoles:
  | Hartree multipole sum: apparent total charge =   0.287806E-13
  Summing up the Hartree potential.
  Time summed over all CPUs for potential: real work        0.001 s, elapsed        0.001 s
  | RMS charge density error from multipole expansion :   0.644832E-13

  Integrating Hamiltonian matrix: batch-based integration.
  Time summed over all CPUs for integration: real work        0.010 s, elapsed        0.010 s

  Updating Kohn-Sham eigenvalues and eigenvectors using ELSI and the (modified) LAPACK eigensolver.
  Starting LAPACK eigensolver
  Finished Cholesky decomposition
  | Time :     0.000 s
  Finished transformation to standard eigenproblem
  | Time :     0.000 s
  Finished solving standard eigenproblem
  | Time :     0.000 s
  Finished back-transformation of eigenvectors
  | Time :     0.000 s

  Obtaining occupation numbers and electronic chemical potential using ELSI.
  | Note that, for insulating systems, the printed 'chemical potential' value is not uniquely defined.
  | It can be anywhere in the energy gap, as long as it correctly separates occupied and unoccupied states.
  | In systems with a gap, the physically relevant chemical potential is the VBM or HOMO.

  | Chemical potential (Fermi level):    -7.84870080 eV
  Current spin moment of the entire structure :
  | N = N_up - N_down :    3.00
  | S                 :    1.50
  | J                 :    4.00

  Highest occupied state (VBM) at     -8.30549839 eV
  | Occupation number:      1.00000000
  | Spin channel:        1

  Lowest unoccupied state (CBM) at    -4.13317654 eV
  | Occupation number:      0.00000000
  | Spin channel:        2

  Overall HOMO-LUMO gap:      4.17232185 eV.

  Total energy components:
  | Sum of eigenvalues            :         -30.39793724 Ha        -827.16995825 eV
  | XC energy correction          :          -6.71477378 Ha        -182.71829111 eV
  | XC potential correction       :           8.62432942 Ha         234.67994392 eV
  | Free-atom electrostatic energy:         -25.89187162 Ha        -704.55367396 eV
  | Hartree energy correction     :          -0.20379956 Ha          -5.54566829 eV
  | Entropy correction            :           0.00000000 Ha           0.00000000 eV
  | ---------------------------
  | Total energy                  :         -54.58405278 Ha       -1485.30764768 eV
  | Total energy, T -> 0          :         -54.58405278 Ha       -1485.30764768 eV  <-- do not rely on this value for anything but (periodic) metals
  | Electronic free energy        :         -54.58405278 Ha       -1485.30764768 eV

  Derived energy quantities:
  | Kinetic energy                :          54.51652732 Ha        1483.47018656 eV
  | Electrostatic energy          :        -102.38580632 Ha       -2786.05954313 eV
  | Energy correction for multipole
  | error in Hartree potential    :           0.00000000 Ha           0.00000000 eV
  | Sum of eigenvalues per atom                           :        -827.16995825 eV
  | Total energy (T->0) per atom                          :       -1485.30764768 eV  <-- do not rely on this value for anything but (periodic) metals
  | Electronic free energy per atom                       :       -1485.30764768 eV
  Evaluating new KS density.
  Integration grid: deviation in total charge (<rho> - N_e) =   2.131628E-14
  | <rho_up-rho_dn> = N_up-N_dn =      3.0000; <|rho_up-rho_dn|> =      3.0000

  Self-consistency convergence accuracy:
  | Change of charge/spin density :  0.2061E-03  0.1755E-03
  | Change of unmixed KS charge/spin density :  0.2123E-03  0.1760E-03
  | Change of sum of eigenvalues  : -0.2572E-01 eV
  | Change of total energy        :  0.2243E-06 eV


------------------------------------------------------------
  End self-consistency iteration #     3       :  max(cpu_time)    wall_clock(cpu1)
  | Time for this iteration                     :        0.020 s           0.019 s
  | Charge density update                       :        0.005 s           0.005 s
  | Density mixing                              :        0.002 s           0.002 s
  | Hartree multipole update                    :        0.000 s           0.000 s
  | Hartree multipole summation                 :        0.002 s           0.002 s
  | Integration                                 :        0.010 s           0.010 s
  | Solution of K.-S. eqns.                     :        0.000 s           0.000 s
  | Total energy evaluation                     :        0.000 s           0.000 s

  Partial memory accounting:
  | Current value for overall tracked memory usage:
  |   Minimum:        0.005 MB (on task 0)
  |   Maximum:        0.005 MB (on task 0)
  |   Average:        0.005 MB
  | Peak value for overall tracked memory usage:
  |   Minimum:        0.217 MB (on task 0 after allocating grid_partition)
  |   Maximum:        0.217 MB (on task 0 after allocating grid_partition)
  |   Average:        0.217 MB
  | Largest tracked array allocation so far:
  |   Minimum:        0.144 MB (all_coords on task 0)
  |   Maximum:        0.144 MB (all_coords on task 0)
  |   Average:        0.144 MB
  Note:  These values currently only include a subset of arrays which are explicitly tracked.
  The "true" memory usage will be greater.
------------------------------------------------------------

------------------------------------------------------------
          Begin self-consistency iteration #    4

  Date     :  20260210, Time     :  175746.656
------------------------------------------------------------
  Pulay mixing of updated and previous charge densities.
  Renormalizing the density to the exact electron count on the 3D integration grid.
  | Formal number of electrons (from input files) :       7.0000000000
  | Integrated number of electrons on 3D grid     :       7.0000000000
  | Charge integration error                      :       0.0000000000
  | Normalization factor for density and gradient :       1.0000000000

  Evaluating partitioned Hartree potential by multipole expansion.
  | Original multipole sum: apparent total charge =   0.985619E-14
  | Sum of charges compensated after spline to logarithmic grids =   0.330812E-04
  | Analytical far-field extrapolation by fixed multipoles:
  | Hartree multipole sum: apparent total charge =   0.984314E-14
  Summing up the Hartree potential.
  Time summed over all CPUs for potential: real work        0.001 s, elapsed        0.001 s
  | RMS charge density error from multipole expansion :   0.668113E-13

  Integrating Hamiltonian matrix: batch-based integration.
  Time summed over all CPUs for integration: real work        0.010 s, elapsed        0.010 s

  Updating Kohn-Sham eigenvalues and eigenvectors using ELSI and the (modified) LAPACK eigensolver.
  Starting LAPACK eigensolver
  Finished Cholesky decomposition
  | Time :     0.000 s
  Finished transformation to standard eigenproblem
  | Time :     0.000 s
  Finished solving standard eigenproblem
  | Time :     0.000 s
  Finished back-transformation of eigenvectors
  | Time :     0.000 s

  Obtaining occupation numbers and electronic chemical potential using ELSI.
  | Note that, for insulating systems, the printed 'chemical potential' value is not uniquely defined.
  | It can be anywhere in the energy gap, as long as it correctly separates occupied and unoccupied states.
  | In systems with a gap, the physically relevant chemical potential is the VBM or HOMO.

  | Chemical potential (Fermi level):    -7.84896150 eV
  Current spin moment of the entire structure :
  | N = N_up - N_down :    3.00
  | S                 :    1.50
  | J                 :    4.00

  Highest occupied state (VBM) at     -8.30590640 eV
  | Occupation number:      1.00000000
  | Spin channel:        1

  Lowest unoccupied state (CBM) at    -4.13361059 eV
  | Occupation number:      0.00000000
  | Spin channel:        2

  Overall HOMO-LUMO gap:      4.17229580 eV.

  Total energy components:
  | Sum of eigenvalues            :         -30.39809476 Ha        -827.17424465 eV
  | XC energy correction          :          -6.71473955 Ha        -182.71735981 eV
  | XC potential correction       :           8.62428443 Ha         234.67871958 eV
  | Free-atom electrostatic energy:         -25.89187162 Ha        -704.55367396 eV
  | Hartree energy correction     :          -0.20363128 Ha          -5.54108895 eV
  | Entropy correction            :           0.00000000 Ha           0.00000000 eV
  | ---------------------------
  | Total energy                  :         -54.58405278 Ha       -1485.30764779 eV
  | Total energy, T -> 0          :         -54.58405278 Ha       -1485.30764779 eV  <-- do not rely on this value for anything but (periodic) metals
  | Electronic free energy        :         -54.58405278 Ha       -1485.30764779 eV

  Derived energy quantities:
  | Kinetic energy                :          54.51628949 Ha        1483.46371483 eV
  | Electrostatic energy          :        -102.38560272 Ha       -2786.05400281 eV
  | Energy correction for multipole
  | error in Hartree potential    :          -0.00000000 Ha          -0.00000000 eV
  | Sum of eigenvalues per atom                           :        -827.17424465 eV
  | Total energy (T->0) per atom                          :       -1485.30764779 eV  <-- do not rely on this value for anything but (periodic) metals
  | Electronic free energy per atom                       :       -1485.30764779 eV
  Evaluating new KS density.
  Integration grid: deviation in total charge (<rho> - N_e) =   3.463896E-14
  | <rho_up-rho_dn> = N_up-N_dn =      3.0000; <|rho_up-rho_dn|> =      3.0000

  Self-consistency convergence accuracy:
  | Change of charge/spin density :  0.3371E-04  0.2932E-04
  | Change of unmixed KS charge/spin density :  0.8204E-04  0.5478E-04
  | Change of sum of eigenvalues  : -0.4286E-02 eV
  | Change of total energy        : -0.1163E-06 eV


------------------------------------------------------------
  End self-consistency iteration #     4       :  max(cpu_time)    wall_clock(cpu1)
  | Time for this iteration                     :        0.020 s           0.020 s
  | Charge density update                       :        0.005 s           0.005 s
  | Density mixing                              :        0.002 s           0.003 s
  | Hartree multipole update                    :        0.000 s           0.000 s
  | Hartree multipole summation                 :        0.001 s           0.002 s
  | Integration                                 :        0.010 s           0.010 s
  | Solution of K.-S. eqns.                     :        0.000 s           0.000 s
  | Total energy evaluation                     :        0.000 s           0.000 s

  Partial memory accounting:
  | Current value for overall tracked memory usage:
  |   Minimum:        0.005 MB (on task 0)
  |   Maximum:        0.005 MB (on task 0)
  |   Average:        0.005 MB
  | Peak value for overall tracked memory usage:
  |   Minimum:        0.217 MB (on task 0 after allocating grid_partition)
  |   Maximum:        0.217 MB (on task 0 after allocating grid_partition)
  |   Average:        0.217 MB
  | Largest tracked array allocation so far:
  |   Minimum:        0.144 MB (all_coords on task 0)
  |   Maximum:        0.144 MB (all_coords on task 0)
  |   Average:        0.144 MB
  Note:  These values currently only include a subset of arrays which are explicitly tracked.
  The "true" memory usage will be greater.
------------------------------------------------------------

------------------------------------------------------------
          Begin self-consistency iteration #    5

  Date     :  20260210, Time     :  175746.676
------------------------------------------------------------
  Pulay mixing of updated and previous charge densities.
  Renormalizing the density to the exact electron count on the 3D integration grid.
  | Formal number of electrons (from input files) :       7.0000000000
  | Integrated number of electrons on 3D grid     :       7.0000000000
  | Charge integration error                      :       0.0000000000
  | Normalization factor for density and gradient :       1.0000000000

  Evaluating partitioned Hartree potential by multipole expansion.
  | Original multipole sum: apparent total charge =   0.178567E-13
  | Sum of charges compensated after spline to logarithmic grids =   0.330872E-04
  | Analytical far-field extrapolation by fixed multipoles:
  | Hartree multipole sum: apparent total charge =   0.178515E-13
  Summing up the Hartree potential.
  Time summed over all CPUs for potential: real work        0.001 s, elapsed        0.001 s
  | RMS charge density error from multipole expansion :   0.404651E-13

  Integrating Hamiltonian matrix: batch-based integration.
  Time summed over all CPUs for integration: real work        0.010 s, elapsed        0.010 s

  Updating Kohn-Sham eigenvalues and eigenvectors using ELSI and the (modified) LAPACK eigensolver.
  Starting LAPACK eigensolver
  Finished Cholesky decomposition
  | Time :     0.000 s
  Finished transformation to standard eigenproblem
  | Time :     0.000 s
  Finished solving standard eigenproblem
  | Time :     0.000 s
  Finished back-transformation of eigenvectors
  | Time :     0.000 s

  Obtaining occupation numbers and electronic chemical potential using ELSI.
  | Note that, for insulating systems, the printed 'chemical potential' value is not uniquely defined.
  | It can be anywhere in the energy gap, as long as it correctly separates occupied and unoccupied states.
  | In systems with a gap, the physically relevant chemical potential is the VBM or HOMO.

  | Chemical potential (Fermi level):    -7.84885485 eV
  Current spin moment of the entire structure :
  | N = N_up - N_down :    3.00
  | S                 :    1.50
  | J                 :    4.00

  Highest occupied state (VBM) at     -8.30573942 eV
  | Occupation number:      1.00000000
  | Spin channel:        1

  Lowest unoccupied state (CBM) at    -4.13346548 eV
  | Occupation number:      0.00000000
  | Spin channel:        2

  Overall HOMO-LUMO gap:      4.17227394 eV.

  Total energy components:
  | Sum of eigenvalues            :         -30.39804961 Ha        -827.17301598 eV
  | XC energy correction          :          -6.71474162 Ha        -182.71741601 eV
  | XC potential correction       :           8.62428705 Ha         234.67879097 eV
  | Free-atom electrostatic energy:         -25.89187162 Ha        -704.55367396 eV
  | Hartree energy correction     :          -0.20367699 Ha          -5.54233287 eV
  | Entropy correction            :           0.00000000 Ha           0.00000000 eV
  | ---------------------------
  | Total energy                  :         -54.58405278 Ha       -1485.30764785 eV
  | Total energy, T -> 0          :         -54.58405278 Ha       -1485.30764785 eV  <-- do not rely on this value for anything but (periodic) metals
  | Electronic free energy        :         -54.58405278 Ha       -1485.30764785 eV

  Derived energy quantities:
  | Kinetic energy                :          54.51622388 Ha        1483.46192942 eV
  | Electrostatic energy          :        -102.38553504 Ha       -2786.05216126 eV
  | Energy correction for multipole
  | error in Hartree potential    :           0.00000000 Ha           0.00000000 eV
  | Sum of eigenvalues per atom                           :        -827.17301598 eV
  | Total energy (T->0) per atom                          :       -1485.30764785 eV  <-- do not rely on this value for anything but (periodic) metals
  | Electronic free energy per atom                       :       -1485.30764785 eV
  Evaluating new KS density.
  Integration grid: deviation in total charge (<rho> - N_e) =  -2.042810E-14
  | <rho_up-rho_dn> = N_up-N_dn =      3.0000; <|rho_up-rho_dn|> =      3.0000

  Self-consistency convergence accuracy:
  | Change of charge/spin density :  0.1802E-04  0.5798E-05
  | Change of unmixed KS charge/spin density :  0.1283E-04  0.8023E-05
  | Change of sum of eigenvalues  :  0.1229E-02 eV
  | Change of total energy        : -0.5162E-07 eV


------------------------------------------------------------
  End self-consistency iteration #     5       :  max(cpu_time)    wall_clock(cpu1)
  | Time for this iteration                     :        0.020 s           0.020 s
  | Charge density update                       :        0.005 s           0.005 s
  | Density mixing                              :        0.002 s           0.003 s
  | Hartree multipole update                    :        0.000 s           0.000 s
  | Hartree multipole summation                 :        0.002 s           0.002 s
  | Integration                                 :        0.010 s           0.010 s
  | Solution of K.-S. eqns.                     :        0.000 s           0.000 s
  | Total energy evaluation                     :        0.000 s           0.000 s

  Partial memory accounting:
  | Current value for overall tracked memory usage:
  |   Minimum:        0.005 MB (on task 0)
  |   Maximum:        0.005 MB (on task 0)
  |   Average:        0.005 MB
  | Peak value for overall tracked memory usage:
  |   Minimum:        0.217 MB (on task 0 after allocating grid_partition)
  |   Maximum:        0.217 MB (on task 0 after allocating grid_partition)
  |   Average:        0.217 MB
  | Largest tracked array allocation so far:
  |   Minimum:        0.144 MB (all_coords on task 0)
  |   Maximum:        0.144 MB (all_coords on task 0)
  |   Average:        0.144 MB
  Note:  These values currently only include a subset of arrays which are explicitly tracked.
  The "true" memory usage will be greater.
------------------------------------------------------------

------------------------------------------------------------
          Begin self-consistency iteration #    6

  Date     :  20260210, Time     :  175746.696
------------------------------------------------------------
  Pulay mixing of updated and previous charge densities.
  Renormalizing the density to the exact electron count on the 3D integration grid.
  | Formal number of electrons (from input files) :       7.0000000000
  | Integrated number of electrons on 3D grid     :       7.0000000000
  | Charge integration error                      :      -0.0000000000
  | Normalization factor for density and gradient :       1.0000000000

  Evaluating partitioned Hartree potential by multipole expansion.
  | Original multipole sum: apparent total charge =  -0.486444E-14
  | Sum of charges compensated after spline to logarithmic grids =   0.330873E-04
  | Analytical far-field extrapolation by fixed multipoles:
  | Hartree multipole sum: apparent total charge =  -0.489066E-14
  Summing up the Hartree potential.
  Time summed over all CPUs for potential: real work        0.002 s, elapsed        0.002 s
  | RMS charge density error from multipole expansion :   0.198902E-13

  Integrating Hamiltonian matrix: batch-based integration.
  Time summed over all CPUs for integration: real work        0.010 s, elapsed        0.010 s

  Updating Kohn-Sham eigenvalues and eigenvectors using ELSI and the (modified) LAPACK eigensolver.
  Starting LAPACK eigensolver
  Finished Cholesky decomposition
  | Time :     0.000 s
  Finished transformation to standard eigenproblem
  | Time :     0.000 s
  Finished solving standard eigenproblem
  | Time :     0.000 s
  Finished back-transformation of eigenvectors
  | Time :     0.000 s

  Obtaining occupation numbers and electronic chemical potential using ELSI.
  | Note that, for insulating systems, the printed 'chemical potential' value is not uniquely defined.
  | It can be anywhere in the energy gap, as long as it correctly separates occupied and unoccupied states.
  | In systems with a gap, the physically relevant chemical potential is the VBM or HOMO.

  | Chemical potential (Fermi level):    -7.84884408 eV
  Current spin moment of the entire structure :
  | N = N_up - N_down :    3.00
  | S                 :    1.50
  | J                 :    4.00

  Highest occupied state (VBM) at     -8.30572488 eV
  | Occupation number:      1.00000000
  | Spin channel:        1

  Lowest unoccupied state (CBM) at    -4.13345385 eV
  | Occupation number:      0.00000000
  | Spin channel:        2

  Overall HOMO-LUMO gap:      4.17227103 eV.

  Total energy components:
  | Sum of eigenvalues            :         -30.39804436 Ha        -827.17287315 eV
  | XC energy correction          :          -6.71474241 Ha        -182.71743752 eV
  | XC potential correction       :           8.62428805 Ha         234.67881807 eV
  | Free-atom electrostatic energy:         -25.89187162 Ha        -704.55367396 eV
  | Hartree energy correction     :          -0.20368244 Ha          -5.54248129 eV
  | Entropy correction            :           0.00000000 Ha           0.00000000 eV
  | ---------------------------
  | Total energy                  :         -54.58405278 Ha       -1485.30764784 eV
  | Total energy, T -> 0          :         -54.58405278 Ha       -1485.30764784 eV  <-- do not rely on this value for anything but (periodic) metals
  | Electronic free energy        :         -54.58405278 Ha       -1485.30764784 eV

  Derived energy quantities:
  | Kinetic energy                :          54.51623149 Ha        1483.46213660 eV
  | Electrostatic energy          :        -102.38554186 Ha       -2786.05234692 eV
  | Energy correction for multipole
  | error in Hartree potential    :          -0.00000000 Ha          -0.00000000 eV
  | Sum of eigenvalues per atom                           :        -827.17287315 eV
  | Total energy (T->0) per atom                          :       -1485.30764784 eV  <-- do not rely on this value for anything but (periodic) metals
  | Electronic free energy per atom                       :       -1485.30764784 eV

  Self-consistency convergence accuracy:
  | Change of charge/spin density :  0.1256E-05  0.7025E-06
  | Change of unmixed KS charge/spin density :  0.5700E-05  0.5071E-05
  | Change of sum of eigenvalues  :  0.1428E-03 eV
  | Change of total energy        :  0.3310E-08 eV

  Writing Kohn-Sham eigenvalues.

  Spin-up eigenvalues:

  State    Occupation    Eigenvalue [Ha]    Eigenvalue [eV]
      1       1.00000         -14.123106         -384.30928
      2       1.00000          -0.730712          -19.88369
      3       1.00000          -0.305230           -8.30572
      4       1.00000          -0.305230           -8.30572
      5       1.00000          -0.305230           -8.30572
      6       0.00000           0.300092            8.16591
      7       0.00000           0.300092            8.16591

  Spin-down eigenvalues:

  State    Occupation    Eigenvalue [Ha]    Eigenvalue [eV]
      1       1.00000         -14.065129         -382.73164
      2       1.00000          -0.563407          -15.33110
      3       0.00000          -0.151902           -4.13345
      4       0.00000          -0.151902           -4.13345
      5       0.00000          -0.151902           -4.13345
      6       0.00000           0.391954           10.66560
      7       0.00000           0.391954           10.66560

  Current spin moment of the entire structure :
  | N = N_up - N_down :    3.00
  | S                 :    1.50
  | J                 :    4.00

  Highest occupied state (VBM) at     -8.30572488 eV
  | Occupation number:      1.00000000
  | Spin channel:        1

  Lowest unoccupied state (CBM) at    -4.13345385 eV
  | Occupation number:      0.00000000
  | Spin channel:        2

  Overall HOMO-LUMO gap:      4.17227103 eV.

  | Chemical Potential                          :    -7.84884408 eV
  | Note that, for insulating systems, the printed 'chemical potential' value is not uniquely defined.
  | It can be anywhere in the energy gap, as long as it correctly separates occupied and unoccupied states.
  | In systems with a gap, the physically relevant chemical potential is the VBM or HOMO.

  Self-consistency cycle converged.


------------------------------------------------------------
  End self-consistency iteration #     6       :  max(cpu_time)    wall_clock(cpu1)
  | Time for this iteration                     :        0.015 s           0.016 s
  | Charge density update                       :        0.000 s           0.000 s
  | Density mixing                              :        0.002 s           0.003 s
  | Hartree multipole update                    :        0.000 s           0.000 s
  | Hartree multipole summation                 :        0.002 s           0.002 s
  | Integration                                 :        0.010 s           0.010 s
  | Solution of K.-S. eqns.                     :        0.000 s           0.000 s
  | Total energy evaluation                     :        0.000 s           0.000 s

  Partial memory accounting:
  | Current value for overall tracked memory usage:
  |   Minimum:        0.005 MB (on task 0)
  |   Maximum:        0.005 MB (on task 0)
  |   Average:        0.005 MB
  | Peak value for overall tracked memory usage:
  |   Minimum:        0.217 MB (on task 0 after allocating grid_partition)
  |   Maximum:        0.217 MB (on task 0 after allocating grid_partition)
  |   Average:        0.217 MB
  | Largest tracked array allocation so far:
  |   Minimum:        0.144 MB (all_coords on task 0)
  |   Maximum:        0.144 MB (all_coords on task 0)
  |   Average:        0.144 MB
  Note:  These values currently only include a subset of arrays which are explicitly tracked.
  The "true" memory usage will be greater.
------------------------------------------------------------

  Energy and forces in a compact form:
  | Total energy uncorrected      :         -0.148530764784266E+04 eV
  | Total energy corrected        :         -0.148530764784266E+04 eV  <-- do not rely on this value for anything but (periodic) metals
  | Electronic free energy        :         -0.148530764784266E+04 eV

  ------------------------------------ 
  Start decomposition of the XC Energy 
  ------------------------------------ 
  X and C from original XC functional choice 
  Hartree-Fock Energy :          0.000000000 Ha              0.000000000 eV
  X Energy            :         -6.536240270 Ha           -177.860147179 eV
  C Energy            :         -0.178502139 Ha             -4.857290345 eV
  XC Energy w/o HF    :         -6.714742410 Ha           -182.717437524 eV
  Total XC Energy     :         -6.714742410 Ha           -182.717437524 eV
  ------------------------------------ 
  LDA X and C from self-consistent density 
  X Energy LDA        :         -5.884328359 Ha           -160.120721509 eV
  C Energy LDA        :         -0.426319846 Ha            -11.600753248 eV
  ------------------------------------ 
  End decomposition of the XC Energy 
  ------------------------------------ 

------------------------------------------------------------

------------------------------------------------------------------------------
  Final output of selected total energy values:

  The following output summarizes some interesting total energy values
  at the end of a run (AFTER all relaxation, molecular dynamics, etc.).

  | Total energy of the DFT / Hartree-Fock s.c.f. calculation      :          -1485.307647843 eV
  | Final zero-broadening corrected energy (caution - metals only) :          -1485.307647843 eV
  | For reference only, the value of 1 Hartree used in FHI-aims is :             27.211384500 eV

  Before relying on these values, please be sure to understand exactly which
  total energy value is referred to by a given number. Different objects may
  all carry the same name 'total energy'. Definitions:

  Total energy of the DFT / Hartree-Fock s.c.f. calculation:
  | Note that this energy does not include ANY quantities calculated after the
  | s.c.f. cycle, in particular not ANY RPA, MP2, etc. many-body perturbation terms.

  Final zero-broadening corrected energy:
  | For metallic systems only, a broadening of the occupation numbers at the Fermi
  | level can be extrapolated back to zero broadening by an electron-gas inspired
  | formula. For all systems that are not real metals, this value can be
  | meaningless and should be avoided.

------------------------------------------------------------------------------
  Methods described in the following list of references were used in this FHI-aims run.
  If you publish the results, please make sure to cite these reference if they apply.
  FHI-aims is an academic code, and for our developers (often, Ph.D. students
  and postdocs), scientific credit in the community is essential.
  Thank you for helping us!

  For any use of FHI-aims, please cite:

    Volker Blum, Ralf Gehrke, Felix Hanke, Paula Havu, Ville Havu,
    Xinguo Ren, Karsten Reuter, and Matthias Scheffler
    'Ab initio molecular simulations with numeric atom-centered orbitals'
    Computer Physics Communications 180, 2175-2196 (2009)
    http://doi.org/10.1016/j.cpc.2009.06.022


  The ELSI infrastructure was used in your run to solve the Kohn-Sham electronic structure.
  Please check out http://elsi-interchange.org to learn more.
  If scalability is important for your project, please acknowledge ELSI by citing:

    V. W-z. Yu, F. Corsetti, A. Garcia, W. P. Huhn, M. Jacquelin, W. Jia,
    B. Lange, L. Lin, J. Lu, W. Mi, A. Seifitokaldani, A. Vazquez-Mayagoitia,
    C. Yang, H. Yang, and V. Blum
    'ELSI: A unified software interface for Kohn-Sham electronic structure solvers'
    Computer Physics Communications 222, 267-285 (2018).
    http://doi.org/10.1016/j.cpc.2017.09.007


  For the real-space grid partitioning and parallelization used in this calculation, please cite:

    Ville Havu, Volker Blum, Paula Havu, and Matthias Scheffler,
    'Efficient O(N) integration for all-electron electronic structure calculation'
    'using numerically tabulated basis functions'
    Journal of Computational Physics 228, 8367-8379 (2009).
    http://doi.org/10.1016/j.jcp.2009.08.008

  Of course, there are many other important community references, e.g., those cited in the
  above references. Our list is limited to references that describe implementations in the
  FHI-aims code. The reason is purely practical (length of this list) - please credit others as well.

------------------------------------------------------------
          Leaving FHI-aims.
          Date     :  20260210, Time     :  175746.718

          Computational steps:
          | Number of self-consistency cycles          :            6
          | Number of SCF (re)initializations          :            1

          Detailed time accounting                     :  max(cpu_time)    wall_clock(cpu1)
          | Total time                                  :        0.310 s           0.312 s
          | Preparation time                            :        0.134 s           0.134 s
          | Boundary condition initalization            :        0.000 s           0.000 s
          | Grid partitioning                           :        0.006 s           0.006 s
          | Preloading free-atom quantities on grid     :        0.006 s           0.006 s
          | Free-atom superposition energy              :        0.005 s           0.005 s
          | Total time for integrations                 :        0.073 s           0.073 s
          | Total time for solution of K.-S. equations  :        0.003 s           0.001 s
          | Total time for density update               :        0.033 s           0.033 s
          | Total time for mixing                       :        0.011 s           0.015 s
          | Total time for Hartree multipole update     :        0.004 s           0.000 s
          | Total time for Hartree multipole sum        :        0.012 s           0.014 s
          | Total time for total energy evaluation      :        0.000 s           0.001 s
          | Total time for scaled ZORA corrections      :        0.000 s           0.000 s

          Partial memory accounting:
          | Residual value for overall tracked memory usage across tasks:     0.000000 MB (should be 0.000000 MB)
          | Peak values for overall tracked memory usage:
          |   Minimum:        0.217 MB (on task 0 after allocating grid_partition)
          |   Maximum:        0.217 MB (on task 0 after allocating grid_partition)
          |   Average:        0.217 MB
          | Largest tracked array allocation:
          |   Minimum:        0.144 MB (all_coords on task 0)
          |   Maximum:        0.144 MB (all_coords on task 0)
          |   Average:        0.144 MB
          Note:  These values currently only include a subset of arrays which are explicitly tracked.
          The "true" memory usage will be greater.

          Have a nice day.
------------------------------------------------------------
