82
Lattice="6.493562200461026 -5.158382786795178e-16 0.0 3.7044566443193894 14.417756698891882 0.0 0.0 0.0 100.0" Properties=species:S:1:pos:R:3:forces:R:3:energies:R:1 energy=-660.1791381835938 stress="-0.0016343333991244435 0.00033207869273610413 -0.00010589724115561694 0.00033207869273610413 -0.0018040081486105919 9.988865349441767e-05 -0.00010589724115561694 9.988865349441767e-05 -0.001482704421505332" free_energy=-660.1791381835938 pbc="T T T"
C       -3.25384709      -0.71380447       6.09024449       0.17818871       0.03578341      -0.04639912      -8.88401794
C       -3.00956051      -1.95691420       5.51864471       0.23325780       0.09329116      -0.06317466      -8.89967346
C       -1.84220639      -2.15513806       4.74003257      -0.04079482      -0.08502592       0.01999345      -9.27591419
C       -0.91815110      -1.07818831       4.54044427      -0.17300688      -0.01769207       0.06110130      -9.19500351
C       -1.19207341       0.19565881       5.13493146       0.19461977       0.03019591      -0.06390329      -9.21822929
C       -2.35919436       0.34265843       5.89845763      -0.27180958      -0.15018716       0.15733838      -8.84432507
C       -1.59114379      -3.42510579       4.16349620      -0.11923462       0.24936610       0.12316997      -8.89646912
C       -0.44334847      -3.62292884       3.40510604       0.05734787       0.10114035      -0.05050351      -8.90688419
C        0.46178970      -2.57732136       3.20329106       0.02925128      -0.27742714      -0.02144639      -8.80510807
C        0.25584299      -1.30307071       3.75158302       0.04190248       0.12313777      -0.01895449      -9.24964905
C        1.19974392      -0.19985871       3.54431278      -0.19508895      -0.03991420       0.11500286      -9.25001335
C        0.92407094       1.07494690       4.13592942       0.09279363       0.11049293      -0.00046391      -9.19357777
C       -0.24816434       1.29886621       4.92767458      -0.07335986      -0.14574397       0.04527223      -9.22424412
C        1.84456101       2.15384853       3.93049392      -0.14603660       0.16982102       0.17375979      -9.28316307
C        1.59397928       3.42355266       4.50781972       0.02069584      -0.18522942      -0.06828781      -8.91522598
C        0.45243054       3.61795556       5.27645336      -0.06652178      -0.10951445       0.00916258      -8.91300201
C       -0.45185411       2.57188090       5.47966782       0.09659775       0.20869246       0.02573185      -8.82401371
C        2.36909952      -0.34808142       2.78445098       0.51994443       0.23697564       0.10126512      -8.75488472
C        3.26289156       0.70885277       2.59125209      -0.65776241      -0.24820817       0.94765854      -8.61717129
C        3.01237681       1.95537251       3.15263880       0.02158180       0.08299801       0.08824135      -8.93303204
C        3.97812727       3.05757159       2.92585982      -0.58786285       0.32062006       0.79802716      -9.29758930
N        3.65854321       4.30327000       3.50045082       0.21443933      -0.26860821      -0.36125132      -8.72832680
C        2.53188971       4.55456905       4.30764136      -0.21355958       0.11674404       0.20425940      -9.37403679
C       -3.98013015      -3.05647410       5.73752331       0.05008197      -0.29342747       0.06359100      -9.34626675
N       -3.69032175      -4.28587026       5.11410536      -0.00215040       0.09185012      -0.03959924      -8.58535576
C       -2.53387141      -4.55348433       4.35577774      -0.12017618       0.03855711       0.15042377      -9.41348076
O        2.35053298       5.66240372       4.80854536      -0.00437754      -0.18284488      -0.04984251      -6.18609571
O        5.00755372       2.91213783       2.26994596       0.42595193      -0.20327201       1.60609508      -6.09198475
O       -2.33572487      -5.67051383       3.88241133       0.01787128      -0.05119520      -0.20419942      -6.25734520
O       -4.99278308      -2.92022139       6.42094268       0.02719617       0.06903782      -0.05776745      -6.29046392
C        4.59175533       5.41450891       3.27328167      -0.10427412      -0.20714313       0.17179203      -9.15911579
C       -4.64746752      -5.38400590       5.30202221       0.15617451       0.26734093      -0.00814294      -9.32548714
H       -4.15693228      -0.58457008       6.68729165       0.08815068       0.03092271       0.02364410      -3.73922205
H       -2.59191483       1.29914563       6.36311654       0.04190420      -0.06549180       0.02436703      -3.77735662
H       -0.26924366      -4.60868473       2.97301518       0.03310626       0.06285754       0.01054399      -3.77609539
H        1.34609010      -2.77705397       2.60075134      -0.04930466       0.01724799       0.07235490      -3.85366678
H        0.28096229       4.60226799       5.71286751      -0.02485183      -0.06417954       0.02490866      -3.70501089
H       -1.33335677       2.77008164       6.08679540       0.06373957      -0.02344814       0.01575506      -3.75938845
H        2.60460356      -1.30609267       2.32435655      -0.03756228       0.04538226       0.29777122      -3.87361193
H        4.16859474       0.57818460       1.99849807       0.14746073      -0.04569457       0.89376593      -3.72833323
H        5.36137236       5.43388699       4.05752925      -0.02822913      -0.08483221      -0.00569095      -3.66134405
H        4.02621409       6.34947920       3.30726453       0.03471336      -0.01775536      -0.09835966      -3.64804173
H        5.07536671       5.26343821       2.30453929      -0.03242889       0.19629711       0.28358853      -3.76514053
H       -5.64362624      -4.95229578       5.43030963       0.07749183      -0.15739129      -0.03496405      -3.67664456
H       -4.59426006      -6.03845419       4.42793515      -0.06481950       0.01617312       0.06790034      -3.62444687
H       -4.39167026      -5.96483848       6.19920192       0.08597769       0.06860439      -0.01031886      -3.61157084
C       -0.00151255      -0.00055841       0.00000000       0.06073445       0.05628170      -0.02872103      -9.29169559
C       -0.92736136       1.06942251       0.00000000       0.26897472       0.10007688      -0.21434173      -9.20745564
C        4.17257860       0.80042807       0.00000000       0.18947524       0.17020065      -1.00154316      -8.91869259
C        3.24672980       1.87040899       0.00000000      -0.36292300       0.23030885      -0.35686737      -8.98173523
C        1.85310756       1.60141456       0.00000000       0.19328786      -0.01707868      -0.15229049      -9.20781708
C        0.92725876       2.67139548       0.00000000      -0.31313884      -0.07943619      -0.09157770      -9.28794193
C        6.02719872       2.40240104       0.00000000       0.33150628      -0.07174378      -0.54138464      -9.07004356
C        5.10134992       3.47238196       0.00000000       0.02705110       0.00424720      -0.58783275      -9.05944920
C        3.70772768       3.20338752       0.00000000      -0.16938449       0.03551959      -0.59297478      -9.05380344
C        2.78187887       4.27336844       0.00000000      -0.14323916      -0.16489343      -0.09943840      -9.26464367
C        1.38825664       4.00437401       0.00000000       0.06035370       0.20409213      -0.04168988      -9.20762634
C        0.46240783       5.07435493       0.00000000       0.16459519      -0.10260613      -0.03149910      -9.19600201
C        5.56234779       4.80536049       0.00000000       0.13462673      -0.19257069      -0.32331243      -9.16078758
C        4.63649899       5.87534141       0.00000000      -0.29539138       0.09624650      -0.16918139      -9.12009621
C        3.24287675       5.60634697       0.00000000       0.05742389       0.23030797      -0.02473949      -9.19775677
C        2.31702795       6.67632789       0.00000000      -0.08943622      -0.12435383       0.01878948      -9.18817043
C        7.41696791       6.40733346       0.00000000       0.13498907       0.03265217       0.02399699      -9.18661404
C        6.49111911       7.47731438       0.00000000      -0.10140152      -0.06637646       0.02438219      -9.19330311
C        5.09749687       7.20831994       0.00000000       0.11439720       0.15883288      -0.00059177      -9.19293499
C        4.17164806       8.27830086       0.00000000      -0.15270907      -0.11654981       0.00234801      -9.19117737
C        2.77802583       8.00930642       0.00000000       0.11461745       0.12942538       0.01917509      -9.19146729
C        1.85217702       9.07928734       0.00000000      -0.14805849      -0.09188946       0.00222653      -9.19361877
C        6.95211698       8.81029291       0.00000000       0.13885629       0.13456562       0.02214458      -9.18390465
C        6.02626818       9.88027383       0.00000000      -0.10128282      -0.13408068      -0.00025395      -9.18937302
C        4.63264594       9.61127939       0.00000000       0.14085135       0.12338527       0.00582595      -9.19212723
C        3.70679714      10.68126031       0.00000000      -0.13829359      -0.11439039      -0.02667065      -9.15742779
C        8.80673710      10.41226587       0.00000000       0.08458660       0.09434476      -0.01698384      -9.19176865
C        7.88088830      11.48224679       0.00000000      -0.10570319      -0.14175630      -0.00847884      -9.21639347
C        6.48726606      11.21325236       0.00000000       0.18767542       0.03586541      -0.00022765      -9.19899273
C        5.56141725      12.28323328       0.00000000      -0.14669377      -0.19163224      -0.09236665      -9.17020607
C        4.16779502      12.01423884       0.00000000      -0.01594741       0.14820585      -0.07966276      -9.14926052
C        3.24194621      13.08421976       0.00000000      -0.00230440      -0.07311203      -0.01505871      -9.23862743
C        8.34188618      12.81522532       0.00000000       0.09133764       0.05886757      -0.01135077      -9.27918053
C        7.41603737      13.88520624       0.00000000      -0.13932665      -0.47457260      -0.43220749      -8.99334145
C        6.02241513      13.61621180       0.00000000       0.08682411       0.19791509      -0.38612422      -8.98007870
C        5.09656633      14.68619273       0.00000000      -0.09415995       0.05639911      -0.16473308      -9.13635159
