78
Lattice="17.17263594207389 -5.032592133233325e-16 0.0 0.6903927989292632 4.846087059341124 0.0 0.0 0.0 100.0" Properties=species:S:1:pos:R:3:REF_forces:R:3 REF_energy=-71544.9770167277 pbc="T T T"
C        3.08427479       1.32270447       3.62410063       0.01026156      -0.01984565       0.01443991
C        3.66886183       0.46685512       4.55011570       0.00133091      -0.02058019      -0.02220663
C        2.84959802      -0.26719299       5.44355029       0.00125713      -0.00954623       0.00730078
C        1.42411793      -0.12995415       5.39152650       0.00470296       0.00080322       0.00544321
C        0.84287423       0.75412898       4.42628678       0.00508410      -0.01759635      -0.00995135
C        1.69474345       1.46050780       3.56483440      -0.02809319      -0.00757620       0.03809137
C        3.44750341      -1.13429361       6.39164854       0.00243999       0.03180811       0.00640720
C        2.64566752      -1.84986707       7.27297566       0.00309794       0.00823425       0.01586812
C        1.25449889      -1.72391054       7.22732268       0.00111090       0.01714054       0.01927724
C        0.61691058      -0.88033612       6.30611902       0.00116952       0.02482031       0.00828876
C       -0.84217298      -0.74262305       6.25046914       0.00279152       0.02691960       0.00697426
C       -1.42357666       0.13883409       5.28292677      -0.00924334      -0.01161027       0.00346930
C       -0.61620848       0.89185423       4.37064769      -0.00589007      -0.01393856      -0.01229119
C       -2.84938280       0.27072382       5.22621352      -0.00615584      -0.00597717       0.01414175
C       -3.44724382       1.13854657       4.27874809      -0.01400310      -0.02175005      -0.02062400
C       -2.64483673       1.86349081       3.40563733      -0.02778374      -0.02511959       0.06209113
C       -1.25359020       1.73881455       3.45241285       0.01812235       0.00823877       0.02997401
C       -1.69383820      -1.44564959       7.11486053      -0.00739453       0.02420519       0.00482517
C       -3.08344840      -1.30913801       7.05446210      -0.00627032       0.00582131       0.01873891
C       -3.66860486      -0.46263162       6.12025496       0.01028248       0.02542974       0.00428716
C       -5.14605500      -0.34272847       6.07890523      -0.04428613       0.09700510      -0.06337209
N       -5.68136589       0.51228457       5.09582423       0.03393031       0.04947707      -0.02659719
C       -4.92034892       1.28987871       4.20125370      -0.03271035      -0.13563543       0.15020363
C        5.14587144       0.33972495       4.58512652       0.02486234      -0.15527022       0.13214570
N        5.67846029      -0.55995528       5.52904303      -0.04135122       0.02408744      -0.01153546
C        4.92016841      -1.29284957       6.46280685       0.07098986       0.06775731      -0.06633522
O       -5.46759889       2.04651590       3.40180992      -0.02289329       0.07503619      -0.04373164
O       -5.88227189      -0.95289654       6.85141569       0.00342775      -0.05264667      -0.01391735
O        5.46895615      -2.02429555       7.28433682      -0.02093182      -0.04539352      -0.01953269
O        5.88361995       0.97505585       3.83467693       0.03645558       0.07285520      -0.05504578
C       -7.14350460       0.63223267       5.02437180       0.15772314      -0.02391458       0.00873087
C        7.13841015      -0.71581199       5.56901469      -0.15668830       0.04532303       0.01425046
H        3.73390560       1.87928253       2.94813437      -0.01105711       0.00711572       0.00741212
H        1.28058691       2.14039655       2.82243280       0.00380289       0.00093214       0.01694472
H        3.12719255      -2.50924736       7.99552736       0.00278471      -0.00313877       0.01185853
H        0.66601975      -2.30494873       7.93515129      -0.00339307      -0.01107443       0.00383740
H       -3.12612082       2.52682606       2.68655347       0.02077255      -0.00260317       0.04044284
H       -0.66485520       2.32404973       2.74826424      -0.00443403       0.00743536       0.02514446
H       -1.27942719      -2.12136274       7.86092343       0.00099513      -0.01054856       0.00536696
H       -3.73283957      -1.86178879       7.73387213      -0.00292329      -0.00165553       0.00962857
H       -7.49365538       1.43870623       5.68370857       0.05399821      -0.01021684       0.02747745
H       -7.41783562       0.87168447       3.99356315      -0.01447704      -0.02656249      -0.00981518
H       -7.58160033      -0.31300378       5.35567878       0.18793484       0.07292397      -0.05865146
H        7.52964438      -0.53942227       4.56353673      -0.09156637      -0.05995225      -0.00404205
H        7.36589966      -1.72378974       5.92593366      -0.02202819       0.01621382      -0.00957668
H        7.58231212       0.01588067       6.25843985      -0.11057269      -0.02406103       0.03969842
C       -0.00161198      -0.00003396       0.00000000       0.21763936       0.08717033       0.00320694
C       -0.52736970       1.31359994       0.00000000      -0.21966411      -0.09903358      -0.04332891
C        2.27441616       0.90860737       0.00000000       0.21345153       0.06095156      -0.03309619
C        1.74865845       2.22224126       0.00000000      -0.17935433      -0.08567015      -0.04034184
C        0.34358442       2.42300957       0.00000000       0.20098696       0.07212892      -0.03500826
C       -0.18217330       3.73664347       0.00000000      -0.20514107      -0.05953508       0.00516994
C        6.48127605       0.30284649       0.00000000       0.19038899       0.08616817       0.00351370
C        5.95551833       1.61648038       0.00000000      -0.17850070      -0.08350245       0.00373355
C        4.55044430       1.81724869       0.00000000       0.22501311       0.06780006      -0.01533730
C        4.02468659       3.13088259       0.00000000      -0.17967969      -0.07636754       0.00088368
C        2.61961256       3.33165090       0.00000000       0.20420833       0.08755025       0.00009207
C        2.09385485       4.64528479       0.00000000      -0.20305628      -0.06593479      -0.00240119
C        8.75730419       1.21148781       0.00000000       0.19717222       0.07873243       0.00529470
C        8.23154648       2.52512170       0.00000000      -0.19857224      -0.07830092       0.00623257
C        6.82647245       2.72589002       0.00000000       0.18872498       0.07026709       0.00176019
C        6.30071473       4.03952391       0.00000000      -0.18276952      -0.07462905       0.00216754
C        4.89564070       4.24029222       0.00000000       0.21461681       0.08385793       0.00665253
C        4.36988299       5.55392612       0.00000000      -0.19472268      -0.08527671      -0.01913707
C       12.96416407       0.60572693       0.00000000       0.18512178       0.09455429      -0.00546585
C       12.43840636       1.91936082       0.00000000      -0.22591696      -0.07889876      -0.01514636
C       11.03333233       2.12012913       0.00000000       0.19834720       0.08322663      -0.00444407
C       10.50757462       3.43376303       0.00000000      -0.17957595      -0.09760300       0.00210032
C        9.10250059       3.63453134       0.00000000       0.20070961       0.07655101       0.00219714
C        8.57674288       4.94816523       0.00000000      -0.20594740      -0.07545233       0.00395168
C       15.24019222       1.51436825       0.00000000       0.20106079       0.05950015      -0.06031853
C       14.71443450       2.82800215       0.00000000      -0.19904071      -0.07862991      -0.06087045
C       13.30936047       3.02877046       0.00000000       0.15766091       0.07359667      -0.03054178
C       12.78360276       4.34240435       0.00000000      -0.21028882      -0.07193296       0.00982071
C       11.37852873       4.54317266       0.00000000       0.18595599       0.07479832       0.00979415
C       10.85277102       5.85680656       0.00000000      -0.17624852      -0.06397627      -0.00225312
C       15.58538862       3.93741178       0.00000000       0.19189660       0.08984091       0.00372576
C       15.05963090       5.25104568       0.00000000      -0.20965781      -0.06532088      -0.00814068
74
Lattice="4.239214793023943 2.5846366781883864e-16 0.0 -0.025813416920218997 17.177138047305753 0.0 0.0 0.0 100.0" Properties=species:S:1:pos:R:3:REF_forces:R:3 REF_energy=-67396.4827408044 pbc="T T T"
C        0.99319966       3.08181824       3.24319967      -0.06467017       0.05978003       0.07395378
C        0.17319600       3.65308248       4.20910609      -0.06389192       0.02162191      -0.01570997
C       -0.43880109       2.83033182       5.18726054      -0.00231757      -0.01605302       0.02547247
C       -0.21550291       1.41484023       5.17978286      -0.04046548       0.01648500       0.01147465
C        0.62946854       0.84692124       4.17249631      -0.07311123       0.01290441      -0.02001965
C        1.21423631       1.70189706       3.22707819      -0.01904708      -0.06662379       0.06731997
C       -1.26920556       3.41515204       6.17552081       0.07523333      -0.02791922       0.02379498
C       -1.86482489       2.61037451       7.13952000       0.05671178       0.02840006       0.05745171
C       -1.65446140       1.22869289       7.13793578       0.08598638      -0.00333219       0.04823502
C       -0.84294765       0.60403992       6.17980899       0.05458997       0.00765462       0.00873381
C       -0.61731181      -0.84509031       6.16997665       0.07360328       0.00641329       0.02593874
C        0.22488512      -1.41342710       5.16060417       0.01849359      -0.02082146       0.00414943
C        0.85511726      -0.60220694       4.16267375      -0.04753900      -0.01690274       0.00513000
C        0.44253171      -2.82976989       5.14887853      -0.02844817       0.00810696       0.00645560
C        1.27369911      -3.41447484       4.16119146      -0.06845512       0.01497701      -0.03414835
C        1.87921918      -2.60820611       3.20463523      -0.05089207      -0.05484930       0.08955842
C        1.67020839      -1.22632089       3.20723632      -0.06205800       0.06836067       0.08211539
C       -1.19853770      -1.69953301       7.11805712       0.07664559       0.00734413       0.06191139
C       -0.97886581      -3.07965986       7.10091005       0.06698701      -0.01192958       0.06204055
C       -0.16873353      -3.65241081       6.12758268       0.06408853      -0.01080900       0.00280771
C        0.04140885      -5.12031526       6.13407516       0.12829180      -0.00690957      -0.05994980
N        0.85320344      -5.64495687       5.10948059       0.08379586       0.02645304      -0.01718255
C        1.51215465      -4.87770885       4.12908797      -0.23453294      -0.04223808       0.14271089
C       -0.04458232       5.11983676       4.19687117      -0.17953853      -0.03334278       0.14981058
N       -0.90357038       5.63737091       5.18598780       0.02743902      -0.00124160      -0.03687753
C       -1.51529366       4.87723661       6.20188442       0.13644785       0.07481138       0.00827688
O        2.24046549      -5.41226526       3.29547806       0.08759854      -0.01934215      -0.04120054
O       -0.46157607      -5.85798740       6.97902415      -0.04880956      -0.01340268      -0.00935545
O       -2.21698882       5.41580397       7.05550132      -0.05445146      -0.03284764      -0.05163040
O        0.48498855       5.86151091       3.37190635       0.05315409       0.05457168      -0.06462291
C        1.06017809      -7.09889073       5.08538872       0.02591979       0.07888338      -0.04239709
C       -1.14848421       7.08559060       5.18156256       0.04889381      -0.08979066      -0.01009679
H        1.45553641       3.73407751       2.50189523       0.00790274      -0.04932849       0.12639394
H        1.86195254       1.29789250       2.45107658      -0.00603229       0.02699677       0.14519492
H       -2.49788895       3.08194294       7.89157237      -0.00404252       0.00329104       0.00928427
H       -2.14265672       0.63731492       7.91051060      -0.01125015      -0.00467633       0.00700779
H        2.51646192      -3.07914530       2.45572428      -0.01706246       0.04775778       0.13637287
H        2.16283807      -0.63427500       2.43799510      -0.00073883      -0.01723435       0.13168070
H       -1.84184215      -1.29486401       7.89737539      -0.01894540      -0.00159130       0.00319614
H       -1.43705317      -3.73129390       7.84533412      -0.00603172      -0.00504859       0.01785863
H        1.93408430      -7.37082348       5.69372307      -0.03981600       0.08254266       0.06921442
H        1.23922920      -7.40254643       4.05054812      -0.06282444      -0.00379694      -0.02040134
H        0.17196448      -7.57859151       5.50506463       0.05972422       0.08570612      -0.03253846
H       -1.07260429       7.44294282       4.15117181      -0.05865060      -0.02615034      -0.01082501
H       -2.13953011       7.26694923       5.60594313       0.05012869      -0.02202679      -0.01873327
H       -0.39722311       7.60229528       5.79503887      -0.03743766      -0.10953590       0.07205068
C       -0.00102342       0.00124589       0.00000000       0.22214310      -0.09289759      -0.00631261
C        0.70629746       1.22670595       0.00000000      -0.23453762       0.10207934      -0.11484044
C       -0.00471105       2.45512276       0.00000000       0.19359655      -0.10017789      -0.05285721
C        0.70260983       3.68058282       0.00000000      -0.23606997       0.13351285      -0.12846286
C       -0.00839868       4.90899962       0.00000000       0.19925167      -0.08128715      -0.01771017
C        0.69892220       6.13445968       0.00000000      -0.16905574       0.11098555      -0.01338707
C       -0.01208631       7.36287649       0.00000000       0.18408126      -0.12314430       0.00034525
C        0.69523457       8.58833655       0.00000000      -0.18323595       0.09511586       0.00616649
C       -0.01577394       9.81675335       0.00000000       0.17784239      -0.08944583       0.00678363
C        0.69154694      11.04221341       0.00000000      -0.15035307       0.10225886       0.00207320
C       -0.01946158      12.27063021       0.00000000       0.16191509      -0.11733962       0.00483671
C        0.68785930      13.49609027       0.00000000      -0.18747944       0.07623108      -0.01310266
C       -0.02314921      14.72450708       0.00000000       0.21030197      -0.10621467      -0.02261250
C        0.68417167      15.94996714       0.00000000      -0.19658159       0.07986143      -0.06529731
C        2.11674016       1.22818433       0.00000000       0.18989626      -0.10049848      -0.14237027
C        2.82406104       2.45364439       0.00000000      -0.15650686       0.11571706      -0.02880107
C        2.11305253       3.68206119       0.00000000       0.20198744      -0.07091907      -0.08591499
C        2.82037341       4.90752125       0.00000000      -0.17391234       0.12476855      -0.00077075
C        2.10936490       6.13593805       0.00000000       0.14710497      -0.09004987       0.00229739
C        2.81668578       7.36139811       0.00000000      -0.17019976       0.08938495       0.00671575
C        2.10567727       8.58981492       0.00000000       0.18118909      -0.10201448       0.00676160
C        2.81299815       9.81527498       0.00000000      -0.18683631       0.12790220       0.00112352
C        2.10198964      11.04369178       0.00000000       0.16857072      -0.10036711      -0.01338238
C        2.80931052      12.26915184       0.00000000      -0.17584158       0.08114102      -0.02558892
C        2.09830201      13.49756865       0.00000000       0.17838393      -0.16472733      -0.12048844
C        2.80562289      14.72302871       0.00000000      -0.17636330       0.10716946      -0.12346156
C        2.09461437      15.95144551       0.00000000       0.17053427      -0.13669973      -0.17669033
C        2.80193525      17.17690557       0.00000000      -0.17040073       0.10433746      -0.07495923
74
Lattice="8.84935784573969 4.766020128522057e-16 0.0 -6.806229858892139 8.228571946269438 0.0 0.0 0.0 100.0" Properties=species:S:1:pos:R:3:REF_forces:R:3 REF_energy=-67396.6561720864 pbc="T T T"
C       -2.30170088      -2.47133299       4.33312842       0.02605631       0.02449446       0.00542790
C       -3.07288968      -1.31907915       4.23667646      -0.02563491       0.00617697      -0.03160563
C       -2.58018109      -0.09789482       4.76031018      -0.00069146      -0.00679673      -0.01843695
C       -1.29125541      -0.04991579       5.38473233       0.01322432       0.00098346      -0.00999416
C       -0.51160730      -1.24831651       5.46910943      -0.02933060       0.00585501       0.01200045
C       -1.04245706      -2.43284004       4.93820930       0.02064531      -0.04300671       0.00411687
C       -3.37056901       1.07465132       4.66721271      -0.02837610       0.01705520      -0.02816111
C       -2.89153221       2.27168634       5.18620653       0.00431801      -0.00456079       0.00050501
C       -1.63448651       2.32788306       5.79446425       0.01696284       0.02246286      -0.00442826
C       -0.81547382       1.19521092       5.90859076       0.01933800       0.00615389      -0.03390477
C        0.50521059       1.24508653       6.54443016       0.01795757      -0.00663623      -0.00962502
C        1.28631855       0.04742299       6.62571711      -0.02269380       0.01729018       0.01813061
C        0.80907019      -1.19844426       6.10496321      -0.01027782      -0.00775741       0.05763578
C        2.57821769       0.09690426       7.24384545      -0.00178354       0.01373276       0.02134812
C        3.36820396      -1.07584489       7.33779226       0.02373831      -0.01374044       0.01202744
C        2.88395768      -2.27551088       6.82982501       0.00338572       0.00741314      -0.00507054
C        1.62620037      -2.33206704       6.22307385      -0.01770253      -0.03114096       0.00923582
C        1.03419714       2.42866874       7.07927485      -0.02548481       0.02331406      -0.00805062
C        2.29415903       2.46752461       7.68283607      -0.01099243      -0.02445000      -0.01239784
C        3.07054181       1.31789388       7.76829409       0.01453022      -0.00600167       0.01082658
C        4.40476896       1.39281746       8.41107697      -0.04551646      -0.02294508       0.00252898
N        5.15439021       0.20083683       8.44718012       0.01126498      -0.04022957       0.00706639
C        4.70827314      -1.04790622       7.97212613      -0.06245777       0.06879368       0.01919863
C       -4.40309822      -1.39197496       3.58538800       0.06221728       0.10656897       0.07509122
N       -5.12788824      -0.18745346       3.49672477      -0.01607083       0.00955630       0.05064775
C       -4.70662158       1.04873950       4.02437696       0.10125705      -0.08398607       0.00161913
O        5.40987322      -2.05115871       8.08318682       0.08118239      -0.06078787      -0.03755105
O        4.85228482       2.43291962       8.88962672       0.02842368       0.02020519      -0.02411969
O       -5.42222757       2.04491795       3.94295668      -0.09661422       0.07394213       0.02394775
O       -4.86460004      -2.43914288       3.13644677      -0.04978705      -0.05925403       0.04607010
C        6.48682419       0.25582572       9.06275994      -0.02007426      -0.00872156       0.04670826
C       -6.44036119      -0.23235805       2.83889426       0.03203690      -0.07508974       0.48481756
H       -2.70158334      -3.40015007       3.92554708       0.02353921      -0.01010478      -0.02298113
H       -0.47252823      -3.35883533       4.98967132       0.02609069      -0.01666405      -0.04554071
H       -3.51748306       3.16073990       5.10559022       0.04591588       0.00499346      -0.05168990
H       -1.29898349       3.28698233       6.18497767      -0.00619026       0.01225617       0.03961013
H        3.50770992      -3.16567477       6.91509526      -0.04714016      -0.00157315       0.05180584
H        1.28836407      -3.29234464       5.83749903       0.00850819      -0.00837592      -0.04297909
H        0.46194696       3.35349173       7.03272634      -0.02494812       0.01870998       0.04409631
H        2.69185783       3.39523921       8.09503875      -0.02190220       0.00449907       0.02656194
H        6.41859400       0.05361657      10.14080736      -0.00019368      -0.00218853      -0.00005601
H        7.11177896      -0.51038932       8.59638325       0.00169415       0.00037201       0.00924648
H        6.89168317       1.26046998       8.91462740      -0.00051315      -0.00600871       0.01216246
H       -6.41778228      -1.02116264       2.08229595      -0.01333469       0.13878455       0.53245654
H       -6.63805683       0.74960656       2.40091740       0.03707637      -0.06326972       0.10903659
H       -7.22727116      -0.46195765       3.57086889       0.01181218       0.02261705       0.02298921
C       -0.00145580      -0.00069303       0.00000000       0.16098710       0.16483368      -0.00010367
C       -1.02035194       0.98109404       0.00000000      -0.13808421      -0.14411932       0.00624593
C        6.46545180       0.58706211       0.00000000       0.13232147       0.15583467       0.00376712
C        5.44655566       1.56884918       0.00000000      -0.12298128      -0.13333542       0.00464781
C        4.08300156       1.17481725       0.00000000       0.11800683       0.14636815      -0.00273413
C        3.06410542       2.15660432       0.00000000      -0.12858831      -0.13008708      -0.00179452
C        1.70055132       1.76257239       0.00000000       0.12596499       0.15637557      -0.06032960
C        0.68165518       2.74435946       0.00000000      -0.13540877      -0.15010361       0.00550198
C       -0.68189893       2.35032753       0.00000000       0.12455342       0.15964565       0.00203013
C       -1.70079507       3.33211459       0.00000000      -0.14351813      -0.14154482       0.00271072
C        5.78500868       2.93808267       0.00000000       0.12945860       0.16964102       0.00683972
C        4.76611254       3.91986973       0.00000000      -0.13494263      -0.13525779       0.00464428
C        3.40255843       3.52583781       0.00000000       0.14999556       0.16651269       0.00478346
C        2.38366229       4.50762487       0.00000000      -0.12506956      -0.16882683       0.00596448
C        1.02010819       4.11359295       0.00000000       0.13913893       0.16219849       0.00261697
C        0.00121205       5.09538001       0.00000000      -0.14681208      -0.16243391       0.00050722
C       -1.36234205       4.70134809       0.00000000       0.11009409       0.16657015      -0.00661096
C       -2.38123819       5.68313515       0.00000000      -0.14119337      -0.17605825      -0.03459826
C       -3.74479229       5.28910323       0.00000000       0.15012290       0.14173237      -0.03290624
C       -4.76368843       6.27089029       0.00000000      -0.12825629      -0.22754506      -0.23488964
C        2.72211531       5.87685837       0.00000000       0.13646088       0.15104041       0.00309905
C        1.70321917       6.85864543       0.00000000      -0.14837107      -0.17340097       0.01396541
C        0.33966507       6.46461350       0.00000000       0.14096558       0.14922991       0.00424126
C       -0.67923107       7.44640057       0.00000000      -0.13503089      -0.15675504       0.00542120
C       -2.04278517       7.05236864       0.00000000       0.12003462       0.12017471      -0.03037732
C       -3.06168132       8.03415571       0.00000000      -0.11798395      -0.14844900      -0.18113291
C       -4.42523542       7.64012378       0.00000000       0.12841557       0.17577270      -0.61211340
C       -5.44413156       8.62191085       0.00000000      -0.17374468      -0.16095396      -0.24971949
74
Lattice="17.69871569147938 9.532040257044114e-16 0.0 1.0215639934237755 4.114285973134719 0.0 0.0 0.0 100.0" Properties=species:S:1:pos:R:3:REF_forces:R:3 REF_energy=-67396.4725047475 pbc="T T T"
C       -3.04280552       0.31902821       7.69620812       0.00327488      -0.01374506       0.03685396
C       -3.52505213       0.89873988       6.52869083       0.00412796       0.00582784      -0.02749239
C       -2.68211724       0.99937717       5.39397584      -0.01052782      -0.01182321       0.02463924
C       -1.33870066       0.50360404       5.44852254       0.00206902      -0.01274909       0.02110209
C       -0.86404754      -0.09412603       6.66036334       0.00545137       0.00599560      -0.01701557
C       -1.73474480      -0.16939891       7.75716445      -0.01471572       0.02201917       0.00345087
C       -3.17314203       1.59682766       4.20646071      -0.01136845      -0.00456385       0.01033944
C       -2.34551917       1.70224196       3.09486190      -0.00809167       0.03602664       0.13948640
C       -1.03485861       1.21897024       3.13864237       0.12375888      -0.00597855       0.20007569
C       -0.50482098       0.61847234       4.28982230      -0.02633636       0.00572716       0.01758303
C        0.86894004       0.10780737       4.34449008       0.01505672      -0.01061223       0.03087546
C        1.34247649      -0.49304515       5.55522318      -0.01385161      -0.00650058       0.01423653
C        0.50971860      -0.60477639       6.71503620       0.00004636       0.00558542      -0.01173109
C        2.68361888      -0.99517790       5.60751299      -0.00092822      -0.00776188       0.03035468
C        3.17495028      -1.59176992       6.79533296      -0.00880091       0.00793691      -0.02065947
C        2.35131177      -1.68604222       7.91088485      -0.00435527      -0.00644548       0.02887875
C        1.04119569      -1.20124829       7.86764447       0.01774832       0.00212256      -0.00514210
C        1.74106288       0.18706581       3.24910325      -0.04497169       0.04203559       0.10956990
C        3.04857460      -0.30289694       3.30951444       0.03210203      -0.01071984       0.10530303
C        3.52684858      -0.89371758       4.47309044       0.00624552      -0.00833593       0.00828210
C        4.91757027      -1.40741038       4.50404774      -0.03119079      -0.03043538       0.03745038
N        5.33764929      -2.01622137       5.70277043       0.02291585      -0.00840279      -0.07950889
C        4.55876513      -2.11916320       6.87187195       0.01484163      -0.00860641       0.16257579
C       -4.91884729       1.40383782       6.49468591      -0.00531806       0.00353996       0.11734647
N       -5.35791890       1.95953903       5.27712027      -0.00228545       0.04823894      -0.07399157
C       -4.56002921       2.11562999       4.12687546       0.03715986      -0.07106642       0.05866511
O        5.01885045      -2.62699679       7.89242046      -0.04280646      -0.00895774      -0.11092652
O        5.67805138      -1.31937325       3.54227294       0.05295718       0.02663407      -0.02682755
O       -5.00940604       2.65341582       3.11695489      -0.01302149       0.05647857       0.01685294
O       -5.66862800       1.34571723       7.46707662       0.00682600      -0.02345286      -0.08047541
C        6.70562758      -2.54890664       5.74993385      -0.13577686       0.07052677      -0.01637171
C       -6.74116392       2.44953173       5.21480661       0.16332818      -0.03734104      -0.05329051
H       -3.70798621       0.25419757       8.55763794      -0.01276798      -0.00510739       0.00273639
H       -1.40029695      -0.61728235       8.69123059      -0.00199931      -0.01314646       0.00517446
H       -2.74344797       2.16756339       2.19272093       0.07854140      -0.02368900       0.28775374
H       -0.42327760       1.32083865       2.24392122      -0.03463387       0.00920619       0.28215074
H        2.75092233      -2.14666109       8.81469418       0.00985208      -0.00435508       0.00118258
H        0.43139918      -1.29812636       8.76413610      -0.00755015      -0.00681357       0.00620553
H        1.40839052       0.63991417       2.31679855       0.02993239      -0.02096196       0.21436095
H        3.71542498      -0.23339634       2.44974122      -0.04266102       0.00893332       0.13626851
H        7.40646721      -1.77333204       6.08910639      -0.15702504      -0.03808353       0.04956082
H        6.72540703      -3.38048602       6.45933195       0.00530828       0.02590002       0.05921303
H        6.98564576      -2.86431780       4.74133594      -0.03611655      -0.00748391      -0.02753024
H       -7.34810198       1.85073928       5.89908527       0.16121221       0.03448557      -0.00337255
H       -7.08772726       2.36728911       4.18122458      -0.01601015      -0.01428228      -0.01043603
H       -6.78796062       3.50293065       5.52446921       0.01011810      -0.03245361       0.03369622
C       -0.00145580      -0.00069303       0.00000000       0.12782290       0.14497567      -0.10886678
C       -1.02035194       0.98109404       0.00000000      -0.18960091      -0.18651422      -0.27333739
C        8.84790204      -0.00069303       0.00000000       0.13513397       0.14852141       0.00714468
C        7.82900590       0.98109404       0.00000000      -0.14432415      -0.13847584       0.00634027
C        6.46545180       0.58706211       0.00000000       0.14126430       0.12690859       0.00601686
C        5.44655566       1.56884918       0.00000000      -0.12414108      -0.15183390       0.01030344