66
Lattice="6.493562200461026 -5.158382786795178e-16 0.0 -3.7140238202323634 8.009864832717714 0.0 0.0 0.0 100.0" Properties=species:S:1:pos:R:3:REF_forces:R:3 REF_energy=-59096.8143632337 pbc="T T T"
C        0.36391639       3.64898714       6.52470644      -0.44406804      -0.43992666       0.40205831
C        1.56801374       3.16257256       7.01995838       0.07437650      -0.21589373       0.61453431
C        1.86539119       1.78119466       6.91222278      -0.04526920       0.07495811       0.17636041
C        0.93004686       0.88926703       6.29324740      -0.21968766      -0.02360986      -0.02534344
C       -0.30260456       1.41284623       5.78573361      -0.00657769      -0.39185960       0.17469930
C       -0.55279151       2.78647911       5.91723127       0.13203412      -0.11342853       0.57566972
C        3.09057503       1.28568873       7.42373335      -0.18074427       0.17369436       0.19725639
C        3.38077165      -0.06993424       7.32475876      -0.14003267      -0.26736140       0.29231537
C        2.47532688      -0.94632086       6.72026256      -0.00930419       0.18281434       0.32162610
C        1.25163443      -0.50307848       6.19789697      -0.39550938      -0.05586840       0.02340703
C        0.29594056      -1.41533438       5.56116701       0.00303293       0.38616697      -0.16344232
C       -0.93518989      -0.89118727       5.05055681       0.20065151       0.02778030       0.03838930
C       -1.25830539       0.50058770       5.14901815       0.39355587       0.07753044      -0.04547874
C       -1.86743594      -1.78195888       4.42527473       0.03865219      -0.09616574      -0.15966226
C       -3.09303790      -1.28660860       3.91461554       0.15319394      -0.23815426      -0.25356181
C       -3.38866197       0.06698841       4.02463931       0.17040954       0.32824195      -0.27073378
C       -2.48395880       0.94309815       4.63064504       0.02334341      -0.19589287      -0.39753940
C        0.54418566      -2.78969206       5.43362171      -0.10810751       0.10677992      -0.62892813
C       -0.37177407      -3.65192117       4.82462366       0.47088116       0.48806359      -0.44697918
C       -1.57046005      -3.16348652       4.31835530      -0.09348502       0.17278153      -0.66120630
C       -2.51958804      -4.10336840       3.67436494       0.48339060       0.68491832      -0.52560390
N       -3.70653496      -3.54607739       3.15993610       0.03929386      -0.18607174       0.15860212
C       -4.07205171      -2.18965095       3.26270152       0.28828635       0.30625589       0.02060739
C        2.52132708       4.10401836       7.65542568      -0.39578174      -0.57874723       0.65504600
N        3.73414510       3.55638481       8.11718721      -0.07583958       0.12935200      -0.02891090
C        4.07377247       2.19029447       8.06712821      -0.15699996      -0.32071228       0.24170210
O       -5.15003452      -1.79300253       2.82484787       0.08633411       0.01958062      -0.11635609
O       -2.29786548      -5.30887356       3.58114893       0.27086649      -0.02612727      -0.73785535
O        5.13716577       1.78820231       8.53468494      -0.18126570       0.00521485       0.24815145
O        2.28502883       5.30408321       7.77830897      -0.27381192      -0.04439203       0.68959495
C       -4.65311456      -4.45568580       2.50119320      -0.01620717       0.24965982       1.12429202
C        4.70152337       4.47375389       8.73359283      -0.15658168      -0.08964508       0.26679378
H        0.15500986       4.71478153       6.62046696       0.16416785      -0.25266362       0.04986318
H       -1.48197002       3.21154438       5.54188968       0.12759458      -0.20544778      -0.01765619
H        4.32814302      -0.42950253       7.72716131      -0.02860762      -0.07562781       0.03907209
H        2.74518623      -1.99932591       6.66289765      -0.08352091       0.28844658      -0.06873751
H       -4.33832407       0.42570149       3.62690013       0.02637725       0.07988232      -0.02538563
H       -2.75624896       1.99519579       4.69295872       0.13982416      -0.29383174       0.05219758
H        1.47094570      -3.21566019       5.81388684      -0.11786807       0.20969948      -0.00261601
H       -0.16514196      -4.71856467       4.73349418      -0.19273866       0.26448023      -0.02657511
H       -5.35851713      -4.87031467       3.23482817       0.07606985       0.12230232      -0.20795002
H       -5.21175823      -3.88639845       1.75353665       0.14442849      -0.04913866       1.14513724
H       -4.08529513      -5.27480538       2.05198464      -0.14393354       0.10717698       0.50808410
H        4.57900478       5.45912707       8.27621730      -0.06235915      -0.10054499       0.24629104
H        5.70528235       4.07065106       8.57504375      -0.07205236       0.00706986       0.12667695
H        4.51605121       4.55576932       9.81368713      -0.00612975       0.00366021       0.01103312
C       -0.00151255      -0.00055841       0.00000000       0.17335170       0.11597235       0.01980677
C       -0.92736136       1.06942251       0.00000000      -0.15070789      -0.17789001      -0.02649940
C        4.17257860       0.80042807       0.00000000       0.19677234       0.11064856       0.02702325
C        3.24672980       1.87040899       0.00000000      -0.12659539      -0.01867748      -0.02640389
C        1.85310756       1.60141456       0.00000000       0.09299318       0.12642577       0.01503340
C        0.92725876       2.67139548       0.00000000      -0.15771878      -0.15381219      -0.00780966
C       -0.46636348       2.40240104       0.00000000       0.20656056       0.17873894      -0.36733826
C       -1.39221229       3.47238196       0.00000000       0.08516411      -0.17068804      -1.29013635
C        3.70772768       3.20338752       0.00000000      -0.02400692      -0.11340150      -0.99260273
C        2.78187887       4.27336844       0.00000000      -0.23102747      -0.12629115      -0.28838906
C        1.38825664       4.00437401       0.00000000       0.14418506       0.14298587       0.01794272
C        0.46240783       5.07435493       0.00000000      -0.09704738      -0.14984883      -0.01532935
C       -0.93121441       4.80536049       0.00000000       0.16629360       0.09754785      -0.29367200
C       -1.85706321       5.87534141       0.00000000      -0.17743882      -0.12449561      -0.16579249
C        3.24287675       5.60634697       0.00000000       0.14516985       0.18126279      -0.12466729
C        2.31702795       6.67632789       0.00000000      -0.14824234      -0.14345516       0.00147295
C        0.92340571       6.40733346       0.00000000       0.20977153       0.12692918      -0.00119852
C       -0.00244310       7.47731438       0.00000000      -0.20695216      -0.14006896      -0.00326772
C       -1.39606533       7.20831994       0.00000000       0.15803524       0.15076758      -0.06331142
C       -2.32191414       8.27830086       0.00000000      -0.15884135      -0.14804961      -0.00380021
74
Lattice="10.694037919495488 -1.1711141037471087e-15 0.0 -5.642414275580597 6.809175192768373 0.0 0.0 0.0 100.0" Properties=species:S:1:pos:R:3:REF_forces:R:3 REF_energy=-67339.7900239526 pbc="T T T"
C       -0.84699066      -3.63381790       5.15505275       1.10005482       1.02376843      -9.39434099
C       -2.11037503      -3.06981063       5.02284167       1.45551971       1.73922877      -7.78382452
C       -2.27087341      -1.66765754       5.15110775      -2.35369351       3.38473902      -6.67013258
C       -1.13541139      -0.83381027       5.41370850       2.89854884       2.35215841      -4.08134375
C        0.15781753      -1.43574035       5.54166977      -2.98864095       7.93987241     -13.07677657
C        0.26613623      -2.82761304       5.40859133       1.99151307       0.21895199     -10.97698371
C       -3.56070306      -1.09485022       5.02274929      -0.45293369      -0.37628882      -2.52761672
C       -3.72071972       0.27943609       5.15486849       0.53530267       0.86479751      -1.11960061
C       -2.61831717       1.10024698       5.40839854      -0.61527219      -0.58268846      -0.36090759
C       -1.32267842       0.58030447       5.54156331       1.04223283      -0.38914601       0.77710134
C       -0.16005076       1.43410195       5.80673007       1.48837820      -6.58421958       6.88730303
C        1.13368779       0.83254577       5.93125272      -3.34500379      -2.58041588       3.85507309
C        1.32044269      -0.58194461       5.80685254       0.73562069       1.77514594      -1.85147416
C        2.27018748       1.66715530       6.18684972       2.31138869      -3.03167524       6.41003723
C        3.55987692       1.09424470       6.31615348       0.62294958       0.22364192       2.61295924
C        3.71807509      -0.28137634       6.19630447      -0.51137985      -0.55073555       1.13944274
C        2.61542419      -1.10236951       5.94445084       0.36249371       0.50118644       0.49380639
C       -0.26901960       2.82549724       5.94419789      -0.47184649      -1.09596106       9.89145955
C        0.84435784       3.63188638       6.19604531      -1.21697975      -1.01669957      10.17132393
C        2.10955530       3.06920978       6.31602255      -2.42694970      -1.84789605       7.72188578
C        3.27137957       3.95224874       6.57937027      -3.31982733      -4.81067821       5.39146716
N        4.53049410       3.32704827       6.66773481       0.54509833      -2.34856437       6.91204222
C        4.75016811       1.93851858       6.57950484      -0.97621021      -6.01001757       4.94400944
C       -3.27079555      -3.95182134       4.75002938       3.02748964       5.51785801      -5.03151116
N       -4.52124239      -3.32025910       4.60317703       0.32233629       2.96003169      -8.74374958
C       -4.74959130      -1.93809645       4.74993754       1.29607294       4.94394093      -4.70799141
O        5.87869604       1.46974753       6.71281330      -0.62005773       1.56222901       1.75611639
O        3.16188369       5.16936093       6.71256703      -1.60595916       2.58645736      10.53705593
O       -5.88300859      -1.47291583       4.64961339       0.61977555      -1.71483336      -1.70050328
O       -3.16617999      -5.17251724       4.64978009       1.85888479      -2.84124635     -10.61065818
C        5.69816147       4.18455561       6.90976098       3.50519971      -6.56856407      11.73346128
C       -5.68194363      -4.17264963       4.31413439      -1.62405110       1.09150788      -8.94689943
H       -0.74722919      -4.71490386       5.05490034       0.13280523       0.53829100      -2.27713007
H        1.23636758      -3.31213947       5.50250491      -0.53935488      -1.15726400      -5.65953526
H       -4.72238202       0.69819426       5.05464912       0.72610326      -0.52600186      -0.80750130
H       -2.79023807       2.17102793       5.50223769      -0.24244715       0.11509305       0.18550446
H        4.71896992      -0.70069770       6.30170261      -0.72944231       0.52880537       0.75776220
H        2.78653057      -2.17374824       5.85610730       0.19050224       0.04667773      -0.18291438
H       -1.24006129       3.30942899       5.85575195      -0.39600304       1.88588673       3.54383024
H        0.74383388       4.71241295       6.30134031      -0.20343962      -0.68388484       2.05768958
H        5.86516386       4.30745577       7.98899029      -0.52611462       0.20688298       0.93809728
H        6.57440026       3.70345854       6.46714111       1.64076560       0.16315361       5.20748778
H        5.50153758       5.16449573       6.46679311       1.05033785       2.36485622       9.35076187
H       -5.33609572      -5.04310202       3.75033891      -0.00017654       0.23799140      -0.22144615
H       -6.40902100      -3.58211079       3.75041090       0.09653862       0.74256738      -0.53270362
H       -6.14748844      -4.51458937       5.24905438      -4.39132416      -0.79154602      -6.10896944
C       -0.00161037      -0.00007960       0.00000000       0.17656000       0.06339827       0.00368378
C       -0.56436239       1.29813662       0.00000000      -0.17367078      -0.08609491       0.00700517
C        2.24776985       0.97265972       0.00000000       0.17548590       0.07057710       0.00189360
C        1.68501783       2.27087593       0.00000000      -0.15795482      -0.08219664       0.00489650
C        0.27482122       2.43176869       0.00000000       0.17701800       0.07903804       0.00658915
C       -0.28793079       3.72998490       0.00000000      -0.16857350      -0.06681519       0.00536139
C       -1.69812740       3.89087766       0.00000000       0.16609092       0.08762823       0.00487447
C       -2.26087942       5.18909387       0.00000000      -0.17273322      -0.06422481       0.00181176
C       -3.67107603       5.34998663       0.00000000       0.17426003       0.07856518       0.00226358
C       -4.23382804       6.64820284       0.00000000      -0.16632476      -0.07739673       0.00221284
C        6.47009870       0.48629006       0.00000000       0.17183525       0.07270723       0.00175340
C        5.90734668       1.78450628       0.00000000      -0.17002421      -0.08461085       0.00219620
C        4.49715007       1.94539903       0.00000000       0.16855071       0.07368124       0.00348998
C        3.93439805       3.24361525       0.00000000      -0.16993678      -0.07691995       0.00491221
C        2.52420145       3.40450800       0.00000000       0.17247455       0.08270591       0.00530259
C        1.96144943       4.70272422       0.00000000      -0.16977321      -0.07414027       0.00431736
C        0.55125282       4.86361697       0.00000000       0.17602206       0.08923659       0.00463970
C       -0.01149920       6.16183319       0.00000000      -0.17542630      -0.07439929       0.00268405
C       -1.42169580       6.32272594       0.00000000       0.17291726       0.07728559       0.00159128
C       -1.98444782       7.62094216       0.00000000      -0.17111272      -0.08365576       0.00229885
C        8.71947892       1.45902937       0.00000000       0.16091433       0.06786844       0.00382700
C        8.15672690       2.75724559       0.00000000      -0.17449181      -0.07826874       0.00527820
C        6.74653030       2.91813834       0.00000000       0.16308396       0.07686949       0.00348634
C        6.18377828       4.21635456       0.00000000      -0.17099523      -0.07238109       0.00159929
C        4.77358167       4.37724731       0.00000000       0.16947656       0.07980110       0.00328990
C        4.21082965       5.67546353       0.00000000      -0.17638053      -0.07918570       0.00210777
C        2.80063305       5.83635628       0.00000000       0.17175599       0.07918166       0.00276013
C        2.23788103       7.13457250       0.00000000      -0.17785275      -0.08564846       0.00270980
70
Lattice="8.842307248294013 -1.3821838642398718e-15 0.0 -6.820510403409099 7.058685573529177 0.0 0.0 0.0 100.0" Properties=species:S:1:pos:R:3:REF_forces:R:3 REF_energy=-63239.8042685161 pbc="T T T"
C        2.73953830       2.29599785       6.85287842       0.05273148      -3.54632068       2.02358774
C        3.31683712       1.06380075       7.13596928      -0.09482221      -0.35188060      -0.06323721
C        2.60728001      -0.12798572       6.84541996       0.11354897      -0.05780345      -0.01113739
C        1.30087538      -0.06384645       6.25999061      -0.11458679       0.05794425       0.04562577
C        0.72707887       1.21645786       5.97239126      -0.11321944      -0.12042175       0.07608592
C        1.46696274       2.36754096       6.27952634       0.20442146      -2.11168829       1.54077013
C        3.19448469      -1.38342741       7.14088817      -0.11324126       0.07985701      -0.05704372
C        2.49710544      -2.55302339       6.86262368       0.36334671       0.76073397      -0.40434403
C        1.22362838      -2.49957817       6.28930074      -0.14355843       3.40321100      -1.92660412
C        0.60218635      -1.28167779       5.97740122       0.16771862       0.38398880      -0.00760820
C       -0.73336266      -1.21611634       5.37490876       0.12144676       0.13032157      -0.05369145
C       -1.30572496       0.06411002       5.08412184       0.09978316      -0.07079129      -0.04082920
C       -0.60847673       1.28201960       5.36991372      -0.16830602      -0.38098758       0.01420510
C       -2.60920859       0.12808974       4.49220000      -0.11115135       0.05467561       0.00328226
C       -3.19680721       1.38355319       4.19760829       0.09636349      -0.08579494       0.03236503
C       -2.50454543       2.55342777       4.48724730      -0.35305231      -0.75861350       0.40025142
C       -1.23176766       2.50002063       5.06212422       0.13013333      -3.38206290       1.92130142
C       -1.47507746      -2.36709958       5.07184246      -0.21242614       2.09461423      -1.53570110
C       -2.74694781      -2.29559517       4.49692261      -0.03629098       3.52587088      -2.02256092
C       -3.31914426      -1.06367579       4.20249096       0.07834730       0.35934806       0.03069344
C       -4.66854694      -1.02151829       3.58907380       0.32373756       0.45146097       0.06774801
N       -5.18601933       0.25451232       3.29238964      -0.04201187      -0.18419413       0.05788146
C       -4.54380902       1.47374530       3.58409633       0.09864137       0.07188259       0.09150150
C        4.67018715       1.02143001       7.74061268      -0.24891641      -0.40189201       0.00422969
N        5.21205327      -0.25592864       7.98307870       0.01906624       0.19795071       0.03793112
C        4.54543229      -1.47383267       7.74563038      -0.04944878      -0.14348646       0.00085262
O       -5.08657037       2.54749902       3.33199362      -0.09940966      -0.12556535       0.05482312
O       -5.31574464      -2.03677891       3.34113468      -0.28672380       0.44424235      -0.30205020
O        5.07443894      -2.54683611       8.02831096       0.06936560       0.15719874      -0.07967978
O        5.30364182       2.03744020       8.01909297       0.24597373      -0.46730573       0.29234264
C       -6.51356362       0.31962010       2.66730587       0.04205381      -0.05025447       0.81141127
C        6.55920642      -0.32210712       8.56457801      -0.01161478       0.02001112       0.05229898
H        3.30250578       3.19989811       7.08689045      -0.37063700      -2.83214442       2.04797158
H        1.05500377       3.35374716       6.07307627       0.52640444      -2.54062531       4.24422388
H        2.96715374      -3.50762218       7.10037443       0.09286706       0.08929197       0.10200219
H        0.71531607      -3.44059637       6.08672288       0.45103789       2.96236717      -2.12759627
H       -2.97675372       3.50814408       4.25429723      -0.09047140      -0.09025434      -0.08809847
H       -0.72574735       3.44116356       5.26979655      -0.44972060      -2.94289411       2.11927265
H       -1.06539889      -3.35318169       5.28336105      -0.52334908       2.53787538      -4.25290945
H       -3.31205987      -3.19937889       4.26767795       0.37687023       2.82672145      -2.04210998
H       -7.29699127       0.36016597       3.43693390       0.01230290      -0.03542745       0.05235842
H       -6.56308104       1.22841151       2.06165964       0.00808526      -0.18446900       0.55826227
H       -6.65347515      -0.58197011       2.06504016       0.04966974       0.12910313       0.47535319
H        7.11900643       0.55665392       8.23356975       0.00434540       0.01560126       0.02166547
H        7.02843752      -1.25371817       8.23733988      -0.01109711       0.00807426       0.02561059
H        6.50259684      -0.31698462       9.66207483       0.00156933      -0.00186141      -0.00179684
C       -0.00160143       0.00018723       0.00000000       0.24545964       0.03696392      -0.00792309
C       -0.34241425       1.37346863       0.00000000      -0.22183351      -0.03365283       0.02059424
C       -1.70672903       1.76485862       0.00000000       0.20935498       0.06383970       0.00274593
C       -2.04754185       3.13814002       0.00000000      -0.23208231      -0.03904909       0.00226294
C       -3.41185663       3.52953002       0.00000000       0.18793813       0.04613622      -0.00129917
C       -3.75266945       4.90281142       0.00000000      -0.19230269      -0.07924768      -0.01945352
C       -5.11698424       5.29420141       0.00000000       0.18958406       0.02173574      -0.11882117
C       -5.45779706       6.66748281       0.00000000      -0.29359018      -0.04701044      -0.48832729
C        2.37745845       0.58841103       0.00000000       0.24046678       0.06033192      -0.93001973
C        2.03664563       1.96169243       0.00000000      -0.19439463       0.02948623      -0.37819690
C        0.67233085       2.35308242       0.00000000       0.20799650       0.06042590      -0.01468020
C        0.33151803       3.72636382       0.00000000      -0.20731541      -0.04672891       0.01058332
C       -1.03279675       4.11775381       0.00000000       0.20034122       0.04949616       0.00466917
C       -1.37360957       5.49103521       0.00000000      -0.19862388      -0.06344810       0.00202187
C       -2.73792435       5.88242521       0.00000000       0.17015472       0.03213217      -0.03604410
C       -3.07873717       7.25570661       0.00000000      -0.23923293      -0.04215633      -0.21014663
C        4.75651833       1.17663482       0.00000000       0.20236020       0.10065510      -0.01980467
C        4.41570551       2.54991623       0.00000000      -0.18277920      -0.02185525      -0.01112146
C        3.05139073       2.94130622       0.00000000       0.19583109       0.06565050      -0.03471869
C        2.71057791       4.31458762       0.00000000      -0.20319384      -0.07399868       0.01486658
C        1.34626313       4.70597761       0.00000000       0.22077208       0.04943985       0.00565032
C        1.00545031       6.07925901       0.00000000      -0.21078285      -0.06790420       0.01029714
C       -0.35886447       6.47064900       0.00000000       0.20485579       0.04723598       0.00454776
C       -0.69967729       7.84393041       0.00000000      -0.20476018      -0.04408518       0.00340685
76
Lattice="7.352101634667353 3.8637443863194775e-16 0.0 -6.158604255259276 10.611772951413604 0.0 0.0 0.0 100.0" Properties=species:S:1:pos:R:3:REF_forces:R:3 REF_energy=-69467.2473837123 pbc="T T T"
C        1.92916709      -3.23114198       5.48101667       0.42948086      -0.06820653      -0.65406534
C        0.75465293      -3.67736502       4.88677301       0.73000947      -0.02126206      -1.61450640
C       -0.29717424      -2.76175455       4.63465745       0.27844864       0.17886896      -1.19904314
C       -0.15029750      -1.38090160       4.98850314       0.06625994       0.18129938      -0.27178608
C        1.07031963      -0.94206059       5.59566648      -0.02165477       0.03223868       0.05995072
C        2.08173070      -1.88563465       5.82689805       0.02105202       0.03204383      -0.03464451
C       -1.49670686      -3.21959396       4.03486649       0.11740283       0.14729184      -0.42033836
C       -2.53175338      -2.32409847       3.79301897       0.06286425       0.04485212      -0.11325958
C       -2.39583597      -0.97520438       4.13259312      -0.03351346      -0.04873232      -0.03479960
C       -1.22786822      -0.47476466       4.72602742       0.08829682      -0.01605822       0.01954562
C       -1.07615522       0.93916779       5.08486557      -0.03882708      -0.01647108      -0.08401474
C        0.14579376       1.37866895       5.68886441       0.05216280      -0.13289151       0.30163354
C        1.22202634       0.47186869       5.95451933      -0.06943687      -0.00484004      -0.03886573
C        0.29538247       2.76086679       6.03626444       0.10973977      -0.35961919       1.64682900
C        1.49454921       3.21852429       6.63692542      -0.22203060      -0.18751983       0.16890901
C        2.52484364       2.32067276       6.89006509      -0.03552677      -0.08793042       0.10499736
C        2.38827700       0.97145691       6.55203376       0.02877921       0.08936769       0.05326386
C       -2.08926601       1.88189934       4.85767359       0.08697945      -0.00594586      -0.02726116
C       -1.93604771       3.22773157       5.20199852      -0.32443475       0.19772409       0.42496698
C       -0.75679549       3.67630358       5.78498350      -1.06272464       0.18463951       1.76429452
C       -0.62368548       5.11111495       6.13504567      -0.14333551      -0.73257319       0.70182074
N        0.60266285       5.51013591       6.70153074      -0.19448957       0.18481544       0.72806828
C        1.67184853       4.64435001       7.00371062       0.12897896      -0.22076967       0.71983496
C        0.62520997      -5.11035929       4.52800126       0.21351738       0.81638529      -0.77110224
N       -0.57848688      -5.49815045       3.90769029       0.08704289      -0.21514895      -0.56931574
C       -1.67034080      -4.64360362       3.65937554      -0.06834608       0.21400844      -0.62806140
O        2.69317243       5.06841315       7.54051662      -0.28516953      -0.02231751       0.15824287
O       -1.52416331       5.92595737       5.94461381       0.04205182      -0.01183099       0.59854858
O       -2.70443814      -5.07400262       3.15292505       0.22012693       0.06509758      -0.18659321
O        1.51292933      -5.93152609       4.74875505       0.02644001       0.04168709      -0.62651631
C        0.76367217       6.93048155       7.03922420      -0.80925168      -0.13655779       2.01343174
C       -0.72129023      -6.90946781       3.52672686       0.44468771      -0.13347721      -1.38620383
H        2.72424957      -3.95341898       5.66780399      -0.01255976       0.09332663       0.02181205
H        3.01929409      -1.58048387       6.28819232      -0.01927385      -0.05113510       0.02117933
H       -3.44642295      -2.69873124       3.33284561       0.01758888       0.01475478       0.01392471
H       -3.23124740      -0.30955269       3.92299824      -0.00458405       0.01065071      -0.02571705
H        3.43750749       2.69431128       7.35500442      -0.02567423      -0.01059211      -0.00010730
H        3.22156001       0.30474997       6.76668618      -0.00171164      -0.01239944       0.02372637
H       -3.02894700       1.57569875       4.40141114       0.01678716       0.04562142      -0.02149544
H       -2.73312208       3.94902089       5.01994380       0.03445825      -0.09237707      -0.03026703
H        0.41477791       7.12187050       8.06361339      -0.11059280      -0.16222564       0.17223202
H        1.82594059       7.18024917       6.97317051      -0.68276056      -0.06472322       0.66142220
H        0.16057009       7.51894452       6.34270188      -0.06431626      -0.30654740       0.97912205
H        0.27174605      -7.30462622       3.29674366       0.06853448       0.07594394      -0.15340763
H       -1.39378718      -6.96601197       2.66666151       0.08156938       0.05193759      -0.06077725
H       -1.15250923      -7.48758422       4.35592028       0.77712427       0.40148132      -2.20904837
C       -0.00150968       0.00056614       0.00000000       0.19002369      -0.00039164       0.00338241
C       -0.00274088       1.41550559       0.00000000      -0.19325137      -0.00671861       0.00464135
C       -1.23323053       2.12292073       0.00000000       0.19534609       0.01563998      -0.00021667
C       -1.23446173       3.53786018       0.00000000      -0.21642852       0.01378157      -0.02618291
C       -2.46495138       4.24527532       0.00000000       0.18959755       0.03406511      -0.00181258
C       -2.46618258       5.66021477       0.00000000      -0.19021044      -0.00596306      -0.02129567
C       -3.69667223       6.36762991       0.00000000       0.22595172      -0.02658088      -0.00039805
C       -3.69790343       7.78256936       0.00000000      -0.19489836      -0.01063245       0.00356618
C       -4.92839308       8.48998450       0.00000000       0.19330830       0.00014661       0.00237656
C       -4.92962429       9.90492395       0.00000000      -0.20211605      -0.00738356       0.00173819
C        2.44919087       0.00056614       0.00000000       0.19185177       0.00340191       0.00222770
C        2.44795966       1.41550559       0.00000000      -0.19353690      -0.00209223       0.00355568
C        1.21747001       2.12292073       0.00000000       0.19225509       0.01297498      -0.00794404
C        1.21623881       3.53786018       0.00000000      -0.19014989       0.00771429      -0.05067478
C       -0.01425084       4.24527532       0.00000000       0.19636949       0.01288061      -0.06116572
C       -0.01548204       5.66021477       0.00000000      -0.21910809       0.00822207      -0.02465758
C       -1.24597169       6.36762991       0.00000000       0.17166060      -0.01122443      -0.03474913
C       -1.24720289       7.78256936       0.00000000      -0.18912691      -0.03376645      -0.01342774
C       -2.47769254       8.48998450       0.00000000       0.19419469      -0.00415363      -0.00204015
C       -2.47892374       9.90492395       0.00000000      -0.19307544      -0.00918025       0.00119104
C        4.89989141       0.00056614       0.00000000       0.20199949       0.00802588       0.00338636
C        4.89866021       1.41550559       0.00000000      -0.19739631      -0.00795977       0.00510310