------------------------------------------------------------
          Invoking FHI-aims ...

          When using FHI-aims, please cite the following reference:

            Volker Blum, Ralf Gehrke, Felix Hanke, Paula Havu,
            Ville Havu, Xinguo Ren, Karsten Reuter, and Matthias Scheffler,
            'Ab Initio Molecular Simulations with Numeric Atom-Centered Orbitals',
            Computer Physics Communications 180, 2175-2196 (2009)

          In addition, many other developments in FHI-aims are likely important for
          your particular application. A partial list of references is given at the end of
          this file. Thank you for giving credit to the authors of these developments.

          For any questions about FHI-aims, please visit our slack channel at

            https://fhi-aims.slack.com

          and our main development and support site at

            https://aims-git.rz-berlin.mpg.de .

          The latter site, in particular, has a wiki to collect information, as well
          as an issue tracker to log discussions, suggest improvements, and report issues
          or bugs. https://aims-git.rz-berlin.mpg.de is also the main development site
          of the project and all new and updated code versions can be obtained there.
          Please send an email to aims-coordinators@fhi-berlin.mpg.de and we will add
          you to these sites. They are for you and everyone is welcome there.

------------------------------------------------------------



  Date     :  20260210, Time     :  175747.292
  Time zero on CPU 1             :   0.514560000000000E-01  s.
  Internal wall clock time zero  :           539978267.292  s.

  FHI-aims created a unique identifier for this run for later identification
  aims_uuid : 924DCD74-32B1-4A30-A4BE-42B4011E3E2F

  Build configuration of the current instance of FHI-aims
  -------------------------------------------------------
  FHI-aims version      : 220619
  Commit number         : ae3938acd
  CMake host system     : Linux-5.3.18-150300.59.68-default
  CMake version         : 3.18.4
  Fortran compiler      : /mpcdf/soft/SLE_15/packages/x86_64/intel_oneapi/2021.3/mpi/2021.3.0/bin/mpiifort (Intel) version 20.2.3.20210609
  Fortran compiler flags: -O3 -ip -fp-model precise
  C compiler            : /mpcdf/soft/SLE_15/packages/x86_64/intel/2021.3.0/bin/icc (Intel) version 20.2.3.20210609
  C compiler flags      : -O3 -ip -fp-model precise -std=gnu99
  CUDA compiler         : /mpcdf/soft/SLE_15/packages/x86_64/cuda/11.6.2/bin/nvcc
  CUDA compiler flags   : -O3 -DAdd_ -lcublas
  ELPA2 kernel          : AVX512
  Using MPI
  Using ScaLAPACK
  Using LibXC
  Using CUDA
  Using i-PI
  Using RLSY
  Linking against: /mpcdf/soft/SLE_15/packages/x86_64/cuda/11.6.2/lib64/libcublas.so
                   /mpcdf/soft/SLE_15/packages/x86_64/cuda/11.6.2/lib64/libcudart.so
                   /mpcdf/soft/SLE_15/packages/x86_64/intel_oneapi/2021.3/mkl/latest/lib/intel64/libmkl_intel_lp64.so
                   /mpcdf/soft/SLE_15/packages/x86_64/intel_oneapi/2021.3/mkl/latest/lib/intel64/libmkl_sequential.so
                   /mpcdf/soft/SLE_15/packages/x86_64/intel_oneapi/2021.3/mkl/latest/lib/intel64/libmkl_core.so
                   /mpcdf/soft/SLE_15/packages/x86_64/intel_oneapi/2021.3/mkl/latest/lib/intel64/libmkl_blacs_intelmpi_lp64.so
                   /mpcdf/soft/SLE_15/packages/x86_64/intel_oneapi/2021.3/mkl/latest/lib/intel64/libmkl_scalapack_lp64.so

  Using        1 parallel tasks.
  Task        0 on host adag031 reporting.

  Performing system and environment tests:
  | Environment variable OMP_NUM_THREADS correctly set to 1.
  | Checking for ScaLAPACK...
  | Testing pdtran()...
  | All pdtran() tests passed.

  Obtaining array dimensions for all initial allocations:
  
  -----------------------------------------------------------------------
  Parsing control.in (first pass over file, find array dimensions only).
  The contents of control.in will be repeated verbatim below
  unless switched off by setting 'verbatim_writeout .false.' .
  in the first line of control.in .
  -----------------------------------------------------------------------
  
  #===============================================================================
  # FHI-aims file: /ada/u/lazerpo/projectGenSec/fine-tune/train-loop/atoms/atom_O/control.in
  # Created using the Atomic Simulation Environment (ASE)
  # Tue Feb 10 17:57:46 2026
  #===============================================================================
  xc                                 pbe
  spin                               collinear
  default_initial_moment             hund
  relativistic                       atomic_zora scalar
  compute_forces                     .false.
  sc_accuracy_rho                    1e-05
  sc_iter_limit                      200
  #===============================================================================
  
  ################################################################################
  #
  #  FHI-aims code project
  #  VB, Fritz-Haber Institut, 2009
  #
  #  Suggested "light" defaults for O atom (to be pasted into control.in file)
  #  Be sure to double-check any results obtained with these settings for post-processing,
  #  e.g., with the "tight" defaults and larger basis sets.
  #
  ################################################################################
    species        O
  #     global species definitions
      nucleus             8
      mass                15.9994
  #
      l_hartree           4
  #
      cut_pot             3.5  1.5  1.0
      basis_dep_cutoff    1e-4
  #
      radial_base         36 5.0
      radial_multiplier   1
       angular_grids specified
        division   0.2659   50
        division   0.4451  110
        division   0.6052  194
        division   0.7543  302
  #      division   0.8014  434
  #      division   0.8507  590
  #      division   0.8762  770
  #      division   0.9023  974
  #      division   1.2339 1202
  #      outer_grid 974
        outer_grid 302
  ################################################################################
  #
  #  Definition of "minimal" basis
  #
  ################################################################################
  #     valence basis states
      valence      2  s   2.
      valence      2  p   4.
  #     ion occupancy
      ion_occ      2  s   1.
      ion_occ      2  p   3.
  ################################################################################
  #
  #  Suggested additional basis functions. For production calculations,
  #  uncomment them one after another (the most important basis functions are
  #  listed first).
  #
  #  Constructed for dimers: 1.0 A, 1.208 A, 1.5 A, 2.0 A, 3.0 A
  #
  ################################################################################
  #  "First tier" - improvements: -699.05 meV to -159.38 meV
       hydro 2 p 1.8
       hydro 3 d 7.6
       hydro 3 s 6.4
  #  "Second tier" - improvements: -49.91 meV to -5.39 meV
  #     hydro 4 f 11.6
  #     hydro 3 p 6.2
  #     hydro 3 d 5.6
  #     hydro 5 g 17.6
  #     hydro 1 s 0.75
  #  "Third tier" - improvements: -2.83 meV to -0.50 meV
  #     ionic 2 p auto
  #     hydro 4 f 10.8
  #     hydro 4 d 4.7
  #     hydro 2 s 6.8
  #  "Fourth tier" - improvements: -0.40 meV to -0.12 meV
  #     hydro 3 p 5
  #     hydro 3 s 3.3
  #     hydro 5 g 15.6
  #     hydro 4 f 17.6
  #     hydro 4 d 14
  # Further basis functions - -0.08 meV and below
  #     hydro 3 s 2.1
  #     hydro 4 d 11.6
  #     hydro 3 p 16
  #     hydro 2 s 17.2
  
  -----------------------------------------------------------------------
  Completed first pass over input file control.in .
  -----------------------------------------------------------------------
  
  
  -----------------------------------------------------------------------
  Parsing geometry.in (first pass over file, find array dimensions only).
  The contents of geometry.in will be repeated verbatim below
  unless switched off by setting 'verbatim_writeout .false.' .
  in the first line of geometry.in .
  -----------------------------------------------------------------------
  
  #=======================================================
  # FHI-aims file: /ada/u/lazerpo/projectGenSec/fine-tune/train-loop/atoms/atom_O/geometry.in
  # Created using the Atomic Simulation Environment (ASE)
  # Tue Feb 10 17:57:46 2026
  #=======================================================
  atom 0.0000000000000000 0.0000000000000000 0.0000000000000000 O
  
  -----------------------------------------------------------------------
  Completed first pass over input file geometry.in .
  -----------------------------------------------------------------------
  

  Basic array size parameters:
  | Number of species                 :        1
  | Number of atoms                   :        1
  | Max. basis fn. angular momentum   :        2
  | Max. atomic/ionic basis occupied n:        2
  | Max. number of basis fn. types    :        2
  | Max. radial fns per species/type  :        3
  | Max. logarithmic grid size        :     1301
  | Max. radial integration grid size :       36
  | Max. angular integration grid size:      302
  | Max. angular grid division number :        8
  | Radial grid for Hartree potential :     1301
  | Number of spin channels           :        2

------------------------------------------------------------
          Reading file control.in.
------------------------------------------------------------
  XC: Using PBE gradient-corrected functionals.
  Spin treatment: Spin density functional theory - collinear spins.
  Initial spin moment per atom set according to Hund's rules.
  Scalar relativistic treatment of kinetic energy: on-site free-atom approximation to ZORA.
  Forces will not be computed.
  Convergence accuracy of self-consistent charge density:  0.1000E-04
  Maximum number of s.-c. iterations  :   200
 
  Reading configuration options for species O                   .
  | Found nuclear charge :   8.0000
  | Found atomic mass :    15.9994000000000      amu
  | Found l_max for Hartree potential  :   4
  | Found cutoff potl. onset [A], width [A], scale factor :    3.50000    1.50000    1.00000
  | Threshold for basis-dependent cutoff potential is   0.100000E-03
  | Found data for basic radial integration grid :    36 points, outermost radius =    5.000 A
  | Found multiplier for basic radial grid :   1
  | Found angular grid specification: user-specified.
  | Specified grid contains     5 separate shells.
  | Check grid settings after all constraints further below.
  | Found free-atom valence shell :  2 s   2.000
  | Found free-atom valence shell :  2 p   4.000
  | No ionic wave fns used. Skipping ion_occ.
  | No ionic wave fns used. Skipping ion_occ.
  | Found hydrogenic basis function :  2 p   1.800
  | Found hydrogenic basis function :  3 d   7.600
  | Found hydrogenic basis function :  3 s   6.400
  Species O                   : Missing cutoff potential type.
  Defaulting to exp(1/x)/(1-x)^2 type cutoff potential.
  Species O : No 'logarithmic' tag. Using default grid for free atom:
  | Default logarithmic grid data [bohr] : 0.1000E-03 0.1000E+03 0.1012E+01
  Species O : On-site basis accuracy parameter (for Gram-Schmidt orthonormalisation) not specified.
  Using default value basis_acc =  0.1000000E-03.
  Species O                   : Using default innermost maximum threshold i_radial=  2 for radial functions.
  Species O                   : Default cutoff onset for free atom density etc. : 0.35000000E+01 AA.
  Species O                   : Basic radial grid will be enhanced according to radial_multiplier =   1, to contain    36 grid points.
 
  Finished reading input file 'control.in'.
 
------------------------------------------------------------


------------------------------------------------------------
          Reading geometry description geometry.in.
------------------------------------------------------------
  | Isolated single atom, no quantum-mechanical atoms close by.
  Input structure read successfully.
  The structure contains        1 atoms,  and a total of          8.000 electrons.

  Input geometry:
  | No unit cell requested.
  | Atomic structure:
  |       Atom                x [A]            y [A]            z [A]
  |    1: Species O             0.00000000        0.00000000        0.00000000

  Initial moments and charges:
  |  Atom   Moment         Charge        Species
  |     1  (Hund's rule)   0.000000E+00   O

 
  Finished reading input file 'geometry.in'.
 

 
  Consistency checks for stacksize environment parameter are next.
 
  | Maximum stacksize for task 0: unlimited
  | Current stacksize for task 0: unlimited
 
  Consistency checks for the contents of control.in are next.
 
  MPI_IN_PLACE appears to work with this MPI implementation.
  | Keeping use_mpi_in_place .true. (see manual).
  Target number of points in a grid batch is not set. Defaulting to  100
  Method for grid partitioning is not set. Defaulting to parallel hash+maxmin partitioning.
  Batch size limit is not set. Defaulting to    200
  By default, will store active basis functions for each batch.
  If in need of memory, prune_basis_once .false. can be used to disable this option.
  communication_type for Hartree potential was not specified.
  Defaulting to calc_hartree .
  Defaulting to Pulay charge density mixer.
  Pulay mixer: Number of relevant iterations not set.
  Defaulting to    8 iterations.
  Pulay mixer: Number of initial linear mixing iterations not set.
  Defaulting to    0 iterations.
  Work space size for distributed Hartree potential not set.
  Defaulting to   0.200000E+03 MB.
  Mixing parameter for charge density mixing has not been set.
  Using default: charge_mix_param =     0.0500.
  The mixing parameter will be adjusted in iteration number     2 of the first full s.c.f. cycle only.
  Mixing parameter for spin density mixing has not been set.
  Using charge_mix_param as default:     0.0500.
  Algorithm-dependent basis array size parameters:
  | n_max_pulay                         :        8
  Presetting      1001 iterations before the initial mixing cycle
  is restarted anyway using the sc_init_iter criterion / keyword.
  Presetting a factor      1.000 between actual scf density residual
  and density convergence criterion sc_accuracy_rho below which sc_init_iter
  takes no effect.
  Geometry relaxation not requested: no relaxation will be performed.
  No accuracy limit for integral partition fn. given. Defaulting to  0.1000E-14.
  No threshold value for u(r) in integrations given. Defaulting to  0.1000E-05.
  No occupation type (smearing scheme) given. Defaulting to Gaussian broadening, width =  0.1000E-01 eV.
  The width will be adjusted in iteration number     2 of the first full s.c.f. cycle only.
  S.C.F. convergence parameters will be adjusted in iteration number     2 of the first full s.c.f. cycle only.
  No accuracy for occupation numbers given. Defaulting to  0.1000E-12.
  No threshold value for occupation numbers given. Defaulting to  0.0000E+00.
  No accuracy for fermi level given. Defaulting to  0.1000E-19.
  Maximum # of iterations to find E_F not set. Defaulting to  200.
  Preferred method for the eigenvalue solver ('KS_method') not specified in 'control.in'.
  Defaulting to serial version LAPACK (via ELSI).
  Will not use alltoall communication since running on < 1024 CPUs.
  Threshold for basis singularities not set.
  Default threshold for basis singularities:  0.1000E-04
  partition_type (choice of integration weights) for integrals was not specified.
  | Using a version of the partition function of Stratmann and coworkers ('stratmann_sparse').
  | At each grid point, the set of atoms used to build the partition table is smoothly restricted to
  | only those atoms whose free-atom density would be non-zero at that grid point.
  Partitioning for Hartree potential was not defined. Using partition_type for integrals.
  | Adjusted default value of keyword multip_moments_threshold to:       0.10000000E-11
  | This value may affect high angular momentum components of the Hartree potential in periodic systems.
  No q(lm)/r^(l+1) cutoff set for long-range Hartree potential.
  | Using default value of  0.100000E-09 .
  | Verify using the multipole_threshold keyword.
  Defaulting to new monopole extrapolation.
  Density update method: automatic selection selected.
  Charge integration errors on the 3D integration grid will be compensated
  by explicit normalization and distribution of residual charges.
  Use the "compensate_multipole_errors" flag to change this behaviour.
  Set 'collect_eigenvectors' to be '.true.' for all serial calculations. This is mandatory.
  Set 'collect_eigenvectors' to be '.true.' for use_density_matrix .false.
  Set 'collect_eigenvectors' to be '.true.' for KS_method lapack_fast and serial.
 
  Consistency checks for the contents of geometry.in are next.
 
  Number of empty states per atom not set in control.in - providing a guess from actual geometry.
  | Total number of empty states used during s.c.f. cycle:        3
  If you use a very high smearing, use empty_states (per atom!) in control.in to increase this value.

  Structure-dependent array size parameters: 
  | Number of distinct atom types in initial rho :        1
  | Maximum number of distinct radial functions  :        6
  | Maximum number of basis functions            :       14
  | Number of Kohn-Sham states (occupied + empty):        7
------------------------------------------------------------

------------------------------------------------------------
          Preparing all fixed parts of the calculation.
------------------------------------------------------------
  Determining machine precision:
    2.225073858507201E-308
  Setting up grids for atomic and cluster calculations.

  Creating wave function, potential, and density for free atoms.
  Runtime choices for atomic solver:
  | atomic solver xc        : PBE
  | compute density gradient: 1
  | compute kinetic density : F

  Species: O

  List of occupied orbitals and eigenvalues:
    n    l              occ      energy [Ha]    energy [eV]
    1    0           2.0000       -18.926989      -515.0296
    2    0           2.0000        -0.880247       -23.9527
    2    1           4.0000        -0.331514        -9.0210

  Spin-polarized or charged system:
  Charge density initialized according to selected moments and charges.

  Creating spin-polarized density from free atoms.

  Species: O
  Charge:   0.000000
  applying Hund's rules ...

  List of occupied orbitals and eigenvalues:
    n    l      energy [Ha]    energy [eV]    occupation
  Spin-up
    1    0       -18.931227      -515.1449     1.00000000
    2    0        -0.926310       -25.2062     1.00000000
    2    1        -0.375321       -10.2130     3.00000000
  Spin-down
    1    0       -18.885935      -513.9124     1.00000000
    2    0        -0.806966       -21.9587     1.00000000
    2    1        -0.263675        -7.1750     1.00000000


  Adding cutoff potential to free-atom effective potential.
  Creating fixed part of basis set: Ionic, confined, hydrogenic.
 
  O                    hydrogenic:
 
  List of hydrogenic basis orbitals: 
    n    l      effective z      eigenvalue [eV]  inner max. [A]     outer max. [A]     outer radius [A]   
    2    1         1.800000       -10.9749           1.164242           1.164242           4.578029
    3    2         7.600000       -87.3180           0.624125           0.624125           3.251020
    3    0         6.400000       -61.9207           0.061167           1.081902           4.001998
 
  Creating atomic-like basis functions for current effective potential.

  Species O                   :

  List of atomic basis orbitals and eigenvalues:
    n    l      energy [Ha]    energy [eV]    outer radius [A]
    1    0       -18.926989      -515.0296       1.415765
    2    0        -0.880247       -23.9527       4.413171
    2    1        -0.331514        -9.0210       4.522403

  Assembling full basis from fixed parts.
  | Species O :   atomic orbital   1 s accepted.
  | Species O :    hydro orbital   3 s accepted.
  | Species O :   atomic orbital   2 s accepted.
  | Species O :   atomic orbital   2 p accepted.
  | Species O :    hydro orbital   2 p accepted.
  | Species O :    hydro orbital   3 d accepted.
 
  Basis size parameters after reduction:
  | Total number of radial functions:        6
  | Total number of basis functions :       14
 
  Per-task memory consumption for arrays in subroutine allocate_ext:
  |           1.999004MB.
  Testing on-site integration grid accuracy.
  |  Species  Function  <phi|h_atom|phi> (log., in eV)  <phi|h_atom|phi> (rad., in eV)
           1        1               -515.0295626295               -515.0294562738
           1        2                 15.1698434419                 15.1699322204
           1        3                -21.6038822678                -21.6039118105
           1        4                 -9.0211123393                 -9.0212703513
           1        5                  8.3047696391                  8.2854840999
           1        6                 45.8428042125                 45.8427461222

  Preparing densities etc. for the partition functions (integrals / Hartree potential).

  Preparations completed.
  max(cpu_time)          :      0.134 s.
  Wall clock time (cpu1) :      0.135 s.
------------------------------------------------------------

  Initializing index lists of integration centers etc. from given atomic structure:
  | Number of centers in hartree potential         :         1
  | Number of centers in hartree multipole         :         1
  | Number of centers in electron density summation:         1
  | Number of centers in basis integrals           :         1
  | Number of centers in integrals                 :         1
  | Number of centers in hamiltonian               :         1

------------------------------------------------------------
          Begin self-consistency loop: Initialization.

          Date     :  20260210, Time     :  175747.449
------------------------------------------------------------
  Partitioning the integration grid into batches with parallel hashing+maxmin method.
  | Number of batches:       94
  | Maximal batch size:     107
  | Minimal batch size:      51
  | Average batch size:      68.553
  | Standard deviation of batch sizes:      18.910

  Integration load balanced across     1 MPI tasks.
  Work distribution over tasks is as follows:
  Task     0 has       6444 integration points.
  Initializing partition tables, free-atom densities, potentials, etc. across the integration grid (initialize_grid_storage).
  | initialize_grid_storage: Actual outermost partition radius vs. multipole_radius_free
  | (-- VB: in principle, multipole_radius_free should be larger, hence this output)
  | Species        1: Confinement radius =              4.999999999999999 AA, multipole_radius_free =              5.048384829883283 AA.
  | Species        1: outer_partition_radius set to              5.048384829883283 AA .
  | The sparse table of interatomic distances needs          0.01 kbyte instead of         0.01 kbyte of memory.
  | Net number of integration points:     6444
  | of which are non-zero points    :     6444
  Renormalizing the initial density to the exact electron count on the 3D integration grid.
  | Initial density: Formal number of electrons (from input files) :       8.0000000000
  | Integrated number of electrons on 3D grid     :       7.9999827889
  | Charge integration error                      :      -0.0000172111
  | Normalization factor for density and gradient :       1.0000021514
  Renormalizing the free-atom superposition density to the exact electron count on the 3D integration grid.
  | Formal number of electrons (from input files) :       8.0000000000
  | Integrated number of electrons on 3D grid     :       7.9999831343
  | Charge integration error                      :      -0.0000168657
  | Normalization factor for density and gradient :       1.0000021082
  Obtaining max. number of non-zero basis functions in each batch (get_n_compute_maxes).
  | Maximal number of non-zero basis functions:       14 in task     0
  Selecting the method for density update.
  Loop over occupied states selected for charge density update.
  Initialize hartree_potential_storage
  Max. number of atoms included in rho_multipole:            1

  Evaluating partitioned Hartree potential by multipole expansion.
  | Original multipole sum: apparent total charge =   0.105297E-12
  | Sum of charges compensated after spline to logarithmic grids =  -0.293251E-06
  | Analytical far-field extrapolation by fixed multipoles:
  | Hartree multipole sum: apparent total charge =   0.105292E-12
  Summing up the Hartree potential.
  Time summed over all CPUs for potential: real work        0.002 s, elapsed        0.002 s
  | RMS charge density error from multipole expansion :   0.551016E-18

  Allocating        0.001 MB for KS_eigenvector
  Integrating Hamiltonian matrix: batch-based integration.
  Time summed over all CPUs for integration: real work        0.010 s, elapsed        0.010 s
  Integrating overlap matrix.
  Time summed over all CPUs for integration: real work        0.002 s, elapsed        0.002 s

  Updating Kohn-Sham eigenvalues and eigenvectors using ELSI and the (modified) LAPACK eigensolver.
  Overlap matrix is not singular
  | Lowest and highest eigenvalues :  0.9995E+00,  0.1000E+01
  Finished singularity check of overlap matrix
  | Time :     0.001 s
  Starting LAPACK eigensolver
  Finished Cholesky decomposition
  | Time :     0.000 s
  Finished transformation to standard eigenproblem
  | Time :     0.000 s
  Finished solving standard eigenproblem
  | Time :     0.000 s
  Finished back-transformation of eigenvectors
  | Time :     0.000 s

  Obtaining occupation numbers and electronic chemical potential using ELSI.
  | Note that, for insulating systems, the printed 'chemical potential' value is not uniquely defined.
  | It can be anywhere in the energy gap, as long as it correctly separates occupied and unoccupied states.
  | In systems with a gap, the physically relevant chemical potential is the VBM or HOMO.

  | Chemical potential (Fermi level):    -7.17763924 eV
  Writing Kohn-Sham eigenvalues.

  Spin-up eigenvalues:

  State    Occupation    Eigenvalue [Ha]    Eigenvalue [eV]
      1       1.00000         -18.931212         -515.14448
      2       1.00000          -0.926300          -25.20591
      3       1.00000          -0.375307          -10.21261
      4       1.00000          -0.375307          -10.21261
      5       1.00000          -0.375307          -10.21261
      6       0.00000           0.286977            7.80904
      7       0.00000           0.286977            7.80904

  Spin-down eigenvalues:

  State    Occupation    Eigenvalue [Ha]    Eigenvalue [eV]
      1       1.00000         -18.885955         -513.91299
      2       1.00000          -0.806945          -21.95810
      3       0.33333          -0.263661           -7.17459
      4       0.33333          -0.263661           -7.17459
      5       0.33333          -0.263661           -7.17459
      6       0.00000           0.335071            9.11775
      7       0.00000           0.335071            9.11775

  Current spin moment of the entire structure :
  | N = N_up - N_down :    2.00
  | S                 :    1.00
  | J                 :    3.00

  Highest occupied state (VBM) at    -10.21261323 eV
  | Occupation number:      1.00000000
  | Spin channel:        1

  Lowest unoccupied state (CBM) at    -7.17459353 eV
  | Occupation number:      0.33333333
  | Spin channel:        2

  Overall HOMO-LUMO gap:      3.03801970 eV.
  This system has fractional occupation numbers. Thus, it is a degenerate system
  within the approximate finite broadening function (occupation_type)
  applied to determine the occupation numbers.
  This may not be harmful. However, for some systems (free atoms), a different, non-degenerate
  ground state might exist by using a smaller broadening (see keyword occupation_type).
  Calculating total energy contributions from superposition of free atom densities.

  Total energy components:
  | Sum of eigenvalues            :         -40.93999398 Ha       -1114.03391758 eV
  | XC energy correction          :          -8.34740846 Ha        -227.14454126 eV
  | XC potential correction       :          10.72546597 Ha         291.85477841 eV
  | Free-atom electrostatic energy:         -36.44232393 Ha        -991.64608855 eV
  | Hartree energy correction     :          -0.08271747 Ha          -2.25085682 eV
  | Entropy correction            :          -0.00014173 Ha          -0.00385656 eV
  | ---------------------------
  | Total energy                  :         -75.08697787 Ha       -2043.22062581 eV
  | Total energy, T -> 0          :         -75.08711960 Ha       -2043.22448236 eV  <-- do not rely on this value for anything but (periodic) metals
  | Electronic free energy        :         -75.08726132 Ha       -2043.22833892 eV

  Derived energy quantities:
  | Kinetic energy                :          74.98939167 Ha        2040.56517008 eV
  | Electrostatic energy          :        -141.72896108 Ha       -3856.64125463 eV
  | Energy correction for multipole
  | error in Hartree potential    :           0.00000000 Ha           0.00000000 eV
  | Sum of eigenvalues per atom                           :       -1114.03391758 eV
  | Total energy (T->0) per atom                          :       -2043.22448236 eV  <-- do not rely on this value for anything but (periodic) metals
  | Electronic free energy per atom                       :       -2043.22833892 eV

  End scf initialization - timings             :  max(cpu_time)    wall_clock(cpu1)
  | Time for scf. initialization                :        0.030 s           0.030 s
  | Boundary condition initialization           :        0.000 s           0.000 s
  | Integration                                 :        0.012 s           0.012 s
  | Solution of K.-S. eqns.                     :        0.001 s           0.001 s
  | Grid partitioning                           :        0.006 s           0.006 s
  | Preloading free-atom quantities on grid     :        0.006 s           0.006 s
  | Free-atom superposition energy              :        0.005 s           0.005 s
  | Total energy evaluation                     :        0.000 s           0.000 s

  Partial memory accounting:
  | Current value for overall tracked memory usage:
  |   Minimum:        0.004 MB (on task 0)
  |   Maximum:        0.004 MB (on task 0)
  |   Average:        0.004 MB
  | Peak value for overall tracked memory usage:
  |   Minimum:        0.221 MB (on task 0 after allocating grid_partition)
  |   Maximum:        0.221 MB (on task 0 after allocating grid_partition)
  |   Average:        0.221 MB
  | Largest tracked array allocation so far:
  |   Minimum:        0.147 MB (all_coords on task 0)
  |   Maximum:        0.147 MB (all_coords on task 0)
  |   Average:        0.147 MB
  Note:  These values currently only include a subset of arrays which are explicitly tracked.
  The "true" memory usage will be greater.
------------------------------------------------------------
  Evaluating new KS density.
  Integration grid: deviation in total charge (<rho> - N_e) =  -1.953993E-14
  | <rho_up-rho_dn> = N_up-N_dn =      2.0000; <|rho_up-rho_dn|> =      2.0001

  Time for density update prior                :  max(cpu_time)    wall_clock(cpu1)
  | self-consistency iterative process          :        0.007 s           0.007 s

------------------------------------------------------------
          Begin self-consistency iteration #    1

  Date     :  20260210, Time     :  175747.486
------------------------------------------------------------
  Pulay mixing of updated and previous charge densities.
  Renormalizing the density to the exact electron count on the 3D integration grid.
  | Formal number of electrons (from input files) :       8.0000000000
  | Integrated number of electrons on 3D grid     :       8.0000000000
  | Charge integration error                      :      -0.0000000000
  | Normalization factor for density and gradient :       1.0000000000

  Evaluating partitioned Hartree potential by multipole expansion.
  | Original multipole sum: apparent total charge =   0.376495E-13
  | Sum of charges compensated after spline to logarithmic grids =  -0.150415E-06
  | Analytical far-field extrapolation by fixed multipoles:
  | Hartree multipole sum: apparent total charge =   0.376320E-13
  Summing up the Hartree potential.
  Time summed over all CPUs for potential: real work        0.002 s, elapsed        0.002 s
  | RMS charge density error from multipole expansion :   0.789829E-14

  Integrating Hamiltonian matrix: batch-based integration.
  Time summed over all CPUs for integration: real work        0.010 s, elapsed        0.010 s

  Updating Kohn-Sham eigenvalues and eigenvectors using ELSI and the (modified) LAPACK eigensolver.
  Starting LAPACK eigensolver
  Finished Cholesky decomposition
  | Time :     0.000 s
  Finished transformation to standard eigenproblem
  | Time :     0.000 s
  Finished solving standard eigenproblem
  | Time :     0.000 s
  Finished back-transformation of eigenvectors
  | Time :     0.000 s

  Obtaining occupation numbers and electronic chemical potential using ELSI.
  | Note that, for insulating systems, the printed 'chemical potential' value is not uniquely defined.
  | It can be anywhere in the energy gap, as long as it correctly separates occupied and unoccupied states.
  | In systems with a gap, the physically relevant chemical potential is the VBM or HOMO.

  | Chemical potential (Fermi level):    -7.17802904 eV
  Writing Kohn-Sham eigenvalues.

  Spin-up eigenvalues:

  State    Occupation    Eigenvalue [Ha]    Eigenvalue [eV]
      1       1.00000         -18.931240         -515.14526
      2       1.00000          -0.926297          -25.20584
      3       1.00000          -0.375307          -10.21263
      4       1.00000          -0.375307          -10.21263
      5       1.00000          -0.375307          -10.21263
      6       0.00000           0.286977            7.80905
      7       0.00000           0.286977            7.80905

  Spin-down eigenvalues:

  State    Occupation    Eigenvalue [Ha]    Eigenvalue [eV]
      1       1.00000         -18.885910         -513.91175
      2       1.00000          -0.806964          -21.95862
      3       0.33333          -0.263676           -7.17498
      4       0.33333          -0.263676           -7.17498
      5       0.33333          -0.263676           -7.17498
      6       0.00000           0.335078            9.11792
      7       0.00000           0.335078            9.11792

  Current spin moment of the entire structure :
  | N = N_up - N_down :    2.00
  | S                 :    1.00
  | J                 :    3.00

  Highest occupied state (VBM) at    -10.21262798 eV
  | Occupation number:      1.00000000
  | Spin channel:        1

  Lowest unoccupied state (CBM) at    -7.17498334 eV
  | Occupation number:      0.33333333
  | Spin channel:        2

  Overall HOMO-LUMO gap:      3.03764464 eV.
  This system has fractional occupation numbers. Thus, it is a degenerate system
  within the approximate finite broadening function (occupation_type)
  applied to determine the occupation numbers.
  This may not be harmful. However, for some systems (free atoms), a different, non-degenerate
  ground state might exist by using a smaller broadening (see keyword occupation_type).

  Total energy components:
  | Sum of eigenvalues            :         -40.94000924 Ha       -1114.03433283 eV
  | XC energy correction          :          -8.34739637 Ha        -227.14421233 eV
  | XC potential correction       :          10.72545129 Ha         291.85437897 eV
  | Free-atom electrostatic energy:         -36.44232393 Ha        -991.64608855 eV
  | Hartree energy correction     :          -0.08269983 Ha          -2.25037676 eV
  | Entropy correction            :          -0.00014173 Ha          -0.00385656 eV
  | ---------------------------
  | Total energy                  :         -75.08697808 Ha       -2043.22063151 eV
  | Total energy, T -> 0          :         -75.08711981 Ha       -2043.22448806 eV  <-- do not rely on this value for anything but (periodic) metals
  | Electronic free energy        :         -75.08726153 Ha       -2043.22834462 eV

  Derived energy quantities:
  | Kinetic energy                :          74.98966897 Ha        2040.57271574 eV
  | Electrostatic energy          :        -141.72925067 Ha       -3856.64913492 eV
  | Energy correction for multipole
  | error in Hartree potential    :           0.00000000 Ha           0.00000000 eV
  | Sum of eigenvalues per atom                           :       -1114.03433283 eV
  | Total energy (T->0) per atom                          :       -2043.22448806 eV  <-- do not rely on this value for anything but (periodic) metals
  | Electronic free energy per atom                       :       -2043.22834462 eV
  Evaluating new KS density.
  Integration grid: deviation in total charge (<rho> - N_e) =   8.348877E-14
  | <rho_up-rho_dn> = N_up-N_dn =      2.0000; <|rho_up-rho_dn|> =      2.0001

  Self-consistency convergence accuracy:
  | Change of charge/spin density :  0.1276E-02  0.7684E-02
  | Change of unmixed KS charge/spin density :  0.9044E+01  0.5424E+00
  | Change of sum of eigenvalues  : -0.4153E-03 eV
  | Change of total energy        : -0.5700E-05 eV


------------------------------------------------------------
  End self-consistency iteration #     1       :  max(cpu_time)    wall_clock(cpu1)
  | Time for this iteration                     :        0.019 s           0.020 s
  | Charge density update                       :        0.005 s           0.005 s
  | Density mixing                              :        0.001 s           0.002 s
  | Hartree multipole update                    :        0.001 s           0.000 s
  | Hartree multipole summation                 :        0.002 s           0.002 s
  | Integration                                 :        0.010 s           0.010 s
  | Solution of K.-S. eqns.                     :        0.000 s           0.000 s
  | Total energy evaluation                     :        0.000 s           0.000 s

  Partial memory accounting:
  | Current value for overall tracked memory usage:
  |   Minimum:        0.004 MB (on task 0)
  |   Maximum:        0.004 MB (on task 0)
  |   Average:        0.004 MB
  | Peak value for overall tracked memory usage:
  |   Minimum:        0.221 MB (on task 0 after allocating grid_partition)
  |   Maximum:        0.221 MB (on task 0 after allocating grid_partition)
  |   Average:        0.221 MB
  | Largest tracked array allocation so far:
  |   Minimum:        0.147 MB (all_coords on task 0)
  |   Maximum:        0.147 MB (all_coords on task 0)
  |   Average:        0.147 MB
  Note:  These values currently only include a subset of arrays which are explicitly tracked.
  The "true" memory usage will be greater.
------------------------------------------------------------

------------------------------------------------------------
          Begin self-consistency iteration #    2

  Date     :  20260210, Time     :  175747.506
------------------------------------------------------------
  Pulay mixing of updated and previous charge densities.
  Renormalizing the density to the exact electron count on the 3D integration grid.
  | Formal number of electrons (from input files) :       8.0000000000
  | Integrated number of electrons on 3D grid     :       8.0000000000
  | Charge integration error                      :       0.0000000000
  | Normalization factor for density and gradient :       1.0000000000

  Evaluating partitioned Hartree potential by multipole expansion.
  | Original multipole sum: apparent total charge =   0.235502E-13
  | Sum of charges compensated after spline to logarithmic grids =   0.256169E-05
  | Analytical far-field extrapolation by fixed multipoles:
  | Hartree multipole sum: apparent total charge =   0.235541E-13
  Summing up the Hartree potential.
  Time summed over all CPUs for potential: real work        0.002 s, elapsed        0.002 s
  | RMS charge density error from multipole expansion :   0.112746E-11

  Integrating Hamiltonian matrix: batch-based integration.
  Time summed over all CPUs for integration: real work        0.010 s, elapsed        0.010 s

  Updating Kohn-Sham eigenvalues and eigenvectors using ELSI and the (modified) LAPACK eigensolver.
  Starting LAPACK eigensolver
  Finished Cholesky decomposition
  | Time :     0.000 s
  Finished transformation to standard eigenproblem
  | Time :     0.000 s
  Finished solving standard eigenproblem
  | Time :     0.000 s
  Finished back-transformation of eigenvectors
  | Time :     0.000 s

  Obtaining occupation numbers and electronic chemical potential using ELSI.
  | Note that, for insulating systems, the printed 'chemical potential' value is not uniquely defined.
  | It can be anywhere in the energy gap, as long as it correctly separates occupied and unoccupied states.
  | In systems with a gap, the physically relevant chemical potential is the VBM or HOMO.

  | Chemical potential (Fermi level):    -7.18510049 eV
  Current spin moment of the entire structure :
  | N = N_up - N_down :    2.00
  | S                 :    1.00
  | J                 :    3.00

  Highest occupied state (VBM) at    -10.21257048 eV
  | Occupation number:      1.00000000
  | Spin channel:        1

  Lowest unoccupied state (CBM) at    -7.18205478 eV
  | Occupation number:      0.33333333
  | Spin channel:        2

  Overall HOMO-LUMO gap:      3.03051569 eV.
  This system has fractional occupation numbers. Thus, it is a degenerate system
  within the approximate finite broadening function (occupation_type)
  applied to determine the occupation numbers.
  This may not be harmful. However, for some systems (free atoms), a different, non-degenerate
  ground state might exist by using a smaller broadening (see keyword occupation_type).

  Checking to see if s.c.f. parameters should be adjusted.
  Adjusted the Pulay mixing parameter (charge_mix_param) for an expected low-gap system. New value:   0.020000 .
  Adjusted the occupation broadening width for an expected low-gap system. New value:      0.05000000 eV.

  Total energy components:
  | Sum of eigenvalues            :         -40.94016938 Ha       -1114.03869049 eV
  | XC energy correction          :          -8.34718821 Ha        -227.13854793 eV
  | XC potential correction       :          10.72520057 Ha         291.84755653 eV
  | Free-atom electrostatic energy:         -36.44232393 Ha        -991.64608855 eV
  | Hartree energy correction     :          -0.08249911 Ha          -2.24491500 eV
  | Entropy correction            :          -0.00077463 Ha          -0.02107875 eV
  | ---------------------------
  | Total energy                  :         -75.08698006 Ha       -2043.22068545 eV
  | Total energy, T -> 0          :         -75.08775469 Ha       -2043.24176420 eV  <-- do not rely on this value for anything but (periodic) metals
  | Electronic free energy        :         -75.08852932 Ha       -2043.26284295 eV

  Derived energy quantities:
  | Kinetic energy                :          74.99503943 Ha        2040.71885360 eV
  | Electrostatic energy          :        -141.73483128 Ha       -3856.80099112 eV
  | Energy correction for multipole
  | error in Hartree potential    :          -0.00000000 Ha          -0.00000000 eV
  | Sum of eigenvalues per atom                           :       -1114.03869049 eV
  | Total energy (T->0) per atom                          :       -2043.24176420 eV  <-- do not rely on this value for anything but (periodic) metals
  | Electronic free energy per atom                       :       -2043.26284295 eV
  Evaluating new KS density.
  Integration grid: deviation in total charge (<rho> - N_e) =  -1.207923E-13
  | <rho_up-rho_dn> = N_up-N_dn =      2.0000; <|rho_up-rho_dn|> =      2.0001

  Self-consistency convergence accuracy:
  | Change of charge/spin density :  0.1209E-02  0.7299E-02
  | Change of unmixed KS charge/spin density :  0.1135E-04  0.6835E-05
  | Change of sum of eigenvalues  : -0.4358E-02 eV
  | Change of total energy        : -0.5395E-04 eV


------------------------------------------------------------
  End self-consistency iteration #     2       :  max(cpu_time)    wall_clock(cpu1)
  | Time for this iteration                     :        0.019 s           0.019 s
  | Charge density update                       :        0.005 s           0.005 s
  | Density mixing                              :        0.001 s           0.002 s
  | Hartree multipole update                    :        0.001 s           0.000 s
  | Hartree multipole summation                 :        0.002 s           0.002 s
  | Integration                                 :        0.010 s           0.010 s
  | Solution of K.-S. eqns.                     :        0.000 s           0.000 s
  | Total energy evaluation                     :        0.000 s           0.000 s

  Partial memory accounting:
  | Current value for overall tracked memory usage:
  |   Minimum:        0.005 MB (on task 0)
  |   Maximum:        0.005 MB (on task 0)
  |   Average:        0.005 MB
  | Peak value for overall tracked memory usage:
  |   Minimum:        0.221 MB (on task 0 after allocating grid_partition)
  |   Maximum:        0.221 MB (on task 0 after allocating grid_partition)
  |   Average:        0.221 MB
  | Largest tracked array allocation so far:
  |   Minimum:        0.147 MB (all_coords on task 0)
  |   Maximum:        0.147 MB (all_coords on task 0)
  |   Average:        0.147 MB
  Note:  These values currently only include a subset of arrays which are explicitly tracked.
  The "true" memory usage will be greater.
------------------------------------------------------------

------------------------------------------------------------
          Begin self-consistency iteration #    3

  Date     :  20260210, Time     :  175747.525
------------------------------------------------------------
  Pulay mixing of updated and previous charge densities.
  Renormalizing the density to the exact electron count on the 3D integration grid.
  | Formal number of electrons (from input files) :       8.0000000000
  | Integrated number of electrons on 3D grid     :       8.0000000000
  | Charge integration error                      :       0.0000000000
  | Normalization factor for density and gradient :       1.0000000000

  Evaluating partitioned Hartree potential by multipole expansion.
  | Original multipole sum: apparent total charge =   0.109797E-14
  | Sum of charges compensated after spline to logarithmic grids =   0.263265E-05
  | Analytical far-field extrapolation by fixed multipoles:
  | Hartree multipole sum: apparent total charge =   0.110479E-14
  Summing up the Hartree potential.
  Time summed over all CPUs for potential: real work        0.002 s, elapsed        0.002 s
  | RMS charge density error from multipole expansion :   0.383557E-10

  Integrating Hamiltonian matrix: batch-based integration.
  Time summed over all CPUs for integration: real work        0.010 s, elapsed        0.010 s

  Updating Kohn-Sham eigenvalues and eigenvectors using ELSI and the (modified) LAPACK eigensolver.
  Starting LAPACK eigensolver
  Finished Cholesky decomposition
  | Time :     0.000 s
  Finished transformation to standard eigenproblem
  | Time :     0.000 s
  Finished solving standard eigenproblem
  | Time :     0.000 s
  Finished back-transformation of eigenvectors
  | Time :     0.000 s

  Obtaining occupation numbers and electronic chemical potential using ELSI.
  | Note that, for insulating systems, the printed 'chemical potential' value is not uniquely defined.
  | It can be anywhere in the energy gap, as long as it correctly separates occupied and unoccupied states.
  | In systems with a gap, the physically relevant chemical potential is the VBM or HOMO.

  | Chemical potential (Fermi level):    -7.19490019 eV
  Current spin moment of the entire structure :
  | N = N_up - N_down :    2.00
  | S                 :    1.00
  | J                 :    3.00

  Highest occupied state (VBM) at    -10.20980439 eV
  | Occupation number:      1.00000000
  | Spin channel:        1

  Lowest unoccupied state (CBM) at    -7.17967168 eV
  | Occupation number:      0.33333334
  | Spin channel:        2

  Overall HOMO-LUMO gap:      3.03013271 eV.
  This system has fractional occupation numbers. Thus, it is a degenerate system
  within the approximate finite broadening function (occupation_type)
  applied to determine the occupation numbers.
  This may not be harmful. However, for some systems (free atoms), a different, non-degenerate
  ground state might exist by using a smaller broadening (see keyword occupation_type).

  Total energy components:
  | Sum of eigenvalues            :         -40.93911638 Ha       -1114.01003703 eV
  | XC energy correction          :          -8.34733346 Ha        -227.14250042 eV
  | XC potential correction       :          10.72538969 Ha         291.85270266 eV
  | Free-atom electrostatic energy:         -36.44232393 Ha        -991.64608855 eV
  | Hartree energy correction     :          -0.08359595 Ha          -2.27476143 eV
  | Entropy correction            :          -0.00070863 Ha          -0.01928279 eV
  | ---------------------------
  | Total energy                  :         -75.08698004 Ha       -2043.22068478 eV
  | Total energy, T -> 0          :         -75.08768867 Ha       -2043.23996757 eV  <-- do not rely on this value for anything but (periodic) metals
  | Electronic free energy        :         -75.08839730 Ha       -2043.25925036 eV

  Derived energy quantities:
  | Kinetic energy                :          74.99611039 Ha        2040.74799570 eV
  | Electrostatic energy          :        -141.73575696 Ha       -3856.82618005 eV
  | Energy correction for multipole
  | error in Hartree potential    :           0.00000000 Ha           0.00000000 eV
  | Sum of eigenvalues per atom                           :       -1114.01003703 eV
  | Total energy (T->0) per atom                          :       -2043.23996757 eV  <-- do not rely on this value for anything but (periodic) metals
  | Electronic free energy per atom                       :       -2043.25925036 eV
  Evaluating new KS density.
  Integration grid: deviation in total charge (<rho> - N_e) =  -5.062617E-14
  | <rho_up-rho_dn> = N_up-N_dn =      2.0000; <|rho_up-rho_dn|> =      2.0001

  Self-consistency convergence accuracy:
  | Change of charge/spin density :  0.1996E-03  0.1339E-03
  | Change of unmixed KS charge/spin density :  0.2013E-03  0.1350E-03
  | Change of sum of eigenvalues  :  0.2865E-01 eV
  | Change of total energy        :  0.6759E-06 eV


------------------------------------------------------------
  End self-consistency iteration #     3       :  max(cpu_time)    wall_clock(cpu1)
  | Time for this iteration                     :        0.019 s           0.019 s
  | Charge density update                       :        0.005 s           0.005 s
  | Density mixing                              :        0.001 s           0.002 s
  | Hartree multipole update                    :        0.001 s           0.000 s
  | Hartree multipole summation                 :        0.002 s           0.002 s
  | Integration                                 :        0.010 s           0.010 s
  | Solution of K.-S. eqns.                     :        0.000 s           0.000 s
  | Total energy evaluation                     :        0.000 s           0.000 s

  Partial memory accounting:
  | Current value for overall tracked memory usage:
  |   Minimum:        0.005 MB (on task 0)
  |   Maximum:        0.005 MB (on task 0)
  |   Average:        0.005 MB
  | Peak value for overall tracked memory usage:
  |   Minimum:        0.221 MB (on task 0 after allocating grid_partition)
  |   Maximum:        0.221 MB (on task 0 after allocating grid_partition)
  |   Average:        0.221 MB
  | Largest tracked array allocation so far:
  |   Minimum:        0.147 MB (all_coords on task 0)
  |   Maximum:        0.147 MB (all_coords on task 0)
  |   Average:        0.147 MB
  Note:  These values currently only include a subset of arrays which are explicitly tracked.
  The "true" memory usage will be greater.
------------------------------------------------------------

------------------------------------------------------------
          Begin self-consistency iteration #    4

  Date     :  20260210, Time     :  175747.545
------------------------------------------------------------
  Pulay mixing of updated and previous charge densities.
  Renormalizing the density to the exact electron count on the 3D integration grid.
  | Formal number of electrons (from input files) :       8.0000000000
  | Integrated number of electrons on 3D grid     :       8.0000000000
  | Charge integration error                      :      -0.0000000000
  | Normalization factor for density and gradient :       1.0000000000

  Evaluating partitioned Hartree potential by multipole expansion.
  | Original multipole sum: apparent total charge =   0.312954E-13
  | Sum of charges compensated after spline to logarithmic grids =   0.264941E-05
  | Analytical far-field extrapolation by fixed multipoles:
  | Hartree multipole sum: apparent total charge =   0.312989E-13
  Summing up the Hartree potential.
  Time summed over all CPUs for potential: real work        0.001 s, elapsed        0.001 s
  | RMS charge density error from multipole expansion :   0.150785E-09

  Integrating Hamiltonian matrix: batch-based integration.
  Time summed over all CPUs for integration: real work        0.010 s, elapsed        0.010 s

  Updating Kohn-Sham eigenvalues and eigenvectors using ELSI and the (modified) LAPACK eigensolver.
  Starting LAPACK eigensolver
  Finished Cholesky decomposition
  | Time :     0.000 s
  Finished transformation to standard eigenproblem
  | Time :     0.000 s
  Finished solving standard eigenproblem
  | Time :     0.001 s
  Finished back-transformation of eigenvectors
  | Time :     0.000 s

  Obtaining occupation numbers and electronic chemical potential using ELSI.
  | Note that, for insulating systems, the printed 'chemical potential' value is not uniquely defined.
  | It can be anywhere in the energy gap, as long as it correctly separates occupied and unoccupied states.
  | In systems with a gap, the physically relevant chemical potential is the VBM or HOMO.

  | Chemical potential (Fermi level):    -7.19509768 eV
  Current spin moment of the entire structure :
  | N = N_up - N_down :    2.00
  | S                 :    1.00
  | J                 :    3.00

  Highest occupied state (VBM) at    -10.20975445 eV
  | Occupation number:      1.00000000
  | Spin channel:        1

  Lowest unoccupied state (CBM) at    -7.17986917 eV
  | Occupation number:      0.33333336
  | Spin channel:        2

  Overall HOMO-LUMO gap:      3.02988528 eV.
  This system has fractional occupation numbers. Thus, it is a degenerate system
  within the approximate finite broadening function (occupation_type)
  applied to determine the occupation numbers.
  This may not be harmful. However, for some systems (free atoms), a different, non-degenerate
  ground state might exist by using a smaller broadening (see keyword occupation_type).

  Total energy components:
  | Sum of eigenvalues            :         -40.93914324 Ha       -1114.01076783 eV
  | XC energy correction          :          -8.34731707 Ha        -227.14205424 eV
  | XC potential correction       :          10.72536710 Ha         291.85208807 eV
  | Free-atom electrostatic energy:         -36.44232393 Ha        -991.64608855 eV
  | Hartree energy correction     :          -0.08356290 Ha          -2.27386232 eV
  | Entropy correction            :          -0.00070863 Ha          -0.01928279 eV
  | ---------------------------
  | Total energy                  :         -75.08698004 Ha       -2043.22068487 eV
  | Total energy, T -> 0          :         -75.08768867 Ha       -2043.23996766 eV  <-- do not rely on this value for anything but (periodic) metals
  | Electronic free energy        :         -75.08839730 Ha       -2043.25925045 eV

  Derived energy quantities:
  | Kinetic energy                :          74.99604152 Ha        2040.74612166 eV
  | Electrostatic energy          :        -141.73570449 Ha       -3856.82475230 eV
  | Energy correction for multipole
  | error in Hartree potential    :           0.00000000 Ha           0.00000000 eV
  | Sum of eigenvalues per atom                           :       -1114.01076783 eV
  | Total energy (T->0) per atom                          :       -2043.23996766 eV  <-- do not rely on this value for anything but (periodic) metals
  | Electronic free energy per atom                       :       -2043.25925045 eV
  Evaluating new KS density.
  Integration grid: deviation in total charge (<rho> - N_e) =   2.309264E-14
  | <rho_up-rho_dn> = N_up-N_dn =      2.0000; <|rho_up-rho_dn|> =      2.0001

  Self-consistency convergence accuracy:
  | Change of charge/spin density :  0.4425E-05  0.1238E-03
  | Change of unmixed KS charge/spin density :  0.1098E-03  0.5003E-04
  | Change of sum of eigenvalues  : -0.7308E-03 eV
  | Change of total energy        : -0.9871E-07 eV


------------------------------------------------------------
  End self-consistency iteration #     4       :  max(cpu_time)    wall_clock(cpu1)
  | Time for this iteration                     :        0.019 s           0.019 s
  | Charge density update                       :        0.005 s           0.005 s
  | Density mixing                              :        0.002 s           0.001 s
  | Hartree multipole update                    :        0.001 s           0.001 s
  | Hartree multipole summation                 :        0.002 s           0.001 s
  | Integration                                 :        0.010 s           0.010 s
  | Solution of K.-S. eqns.                     :        0.000 s           0.001 s
  | Total energy evaluation                     :        0.000 s           0.000 s

  Partial memory accounting:
  | Current value for overall tracked memory usage:
  |   Minimum:        0.005 MB (on task 0)
  |   Maximum:        0.005 MB (on task 0)
  |   Average:        0.005 MB
  | Peak value for overall tracked memory usage:
  |   Minimum:        0.221 MB (on task 0 after allocating grid_partition)
  |   Maximum:        0.221 MB (on task 0 after allocating grid_partition)
  |   Average:        0.221 MB
  | Largest tracked array allocation so far:
  |   Minimum:        0.147 MB (all_coords on task 0)
  |   Maximum:        0.147 MB (all_coords on task 0)
  |   Average:        0.147 MB
  Note:  These values currently only include a subset of arrays which are explicitly tracked.
  The "true" memory usage will be greater.
------------------------------------------------------------

------------------------------------------------------------
          Begin self-consistency iteration #    5

  Date     :  20260210, Time     :  175747.564
------------------------------------------------------------
  Pulay mixing of updated and previous charge densities.
  Renormalizing the density to the exact electron count on the 3D integration grid.
  | Formal number of electrons (from input files) :       8.0000000000
  | Integrated number of electrons on 3D grid     :       8.0000000000
  | Charge integration error                      :      -0.0000000000
  | Normalization factor for density and gradient :       1.0000000000

  Evaluating partitioned Hartree potential by multipole expansion.
  | Original multipole sum: apparent total charge =   0.135169E-13
  | Sum of charges compensated after spline to logarithmic grids =   0.266054E-05
  | Analytical far-field extrapolation by fixed multipoles:
  | Hartree multipole sum: apparent total charge =   0.135191E-13
  Summing up the Hartree potential.
  Time summed over all CPUs for potential: real work        0.001 s, elapsed        0.001 s
  | RMS charge density error from multipole expansion :   0.176296E-09

  Integrating Hamiltonian matrix: batch-based integration.
  Time summed over all CPUs for integration: real work        0.010 s, elapsed        0.010 s

  Updating Kohn-Sham eigenvalues and eigenvectors using ELSI and the (modified) LAPACK eigensolver.
  Starting LAPACK eigensolver
  Finished Cholesky decomposition
  | Time :     0.000 s
  Finished transformation to standard eigenproblem
  | Time :     0.000 s
  Finished solving standard eigenproblem
  | Time :     0.000 s
  Finished back-transformation of eigenvectors
  | Time :     0.000 s

  Obtaining occupation numbers and electronic chemical potential using ELSI.
  | Note that, for insulating systems, the printed 'chemical potential' value is not uniquely defined.
  | It can be anywhere in the energy gap, as long as it correctly separates occupied and unoccupied states.
  | In systems with a gap, the physically relevant chemical potential is the VBM or HOMO.

  | Chemical potential (Fermi level):    -7.19516266 eV
  Current spin moment of the entire structure :
  | N = N_up - N_down :    2.00
  | S                 :    1.00
  | J                 :    3.00

  Highest occupied state (VBM) at    -10.20961272 eV
  | Occupation number:      1.00000000
  | Spin channel:        1

  Lowest unoccupied state (CBM) at    -7.17993416 eV
  | Occupation number:      0.33333339
  | Spin channel:        2

  Overall HOMO-LUMO gap:      3.02967856 eV.
  This system has fractional occupation numbers. Thus, it is a degenerate system
  within the approximate finite broadening function (occupation_type)
  applied to determine the occupation numbers.
  This may not be harmful. However, for some systems (free atoms), a different, non-degenerate
  ground state might exist by using a smaller broadening (see keyword occupation_type).

  Total energy components:
  | Sum of eigenvalues            :         -40.93912728 Ha       -1114.01033353 eV
  | XC energy correction          :          -8.34730903 Ha        -227.14183553 eV
  | XC potential correction       :          10.72535556 Ha         291.85177399 eV
  | Free-atom electrostatic energy:         -36.44232393 Ha        -991.64608855 eV
  | Hartree energy correction     :          -0.08357536 Ha          -2.27420129 eV
  | Entropy correction            :          -0.00070863 Ha          -0.01928279 eV
  | ---------------------------
  | Total energy                  :         -75.08698004 Ha       -2043.22068490 eV
  | Total energy, T -> 0          :         -75.08768867 Ha       -2043.23996769 eV  <-- do not rely on this value for anything but (periodic) metals
  | Electronic free energy        :         -75.08839730 Ha       -2043.25925048 eV

  Derived energy quantities:
  | Kinetic energy                :          74.99601231 Ha        2040.74532680 eV
  | Electrostatic energy          :        -141.73568332 Ha       -3856.82417617 eV
  | Energy correction for multipole
  | error in Hartree potential    :          -0.00000000 Ha          -0.00000000 eV
  | Sum of eigenvalues per atom                           :       -1114.01033353 eV
  | Total energy (T->0) per atom                          :       -2043.23996769 eV  <-- do not rely on this value for anything but (periodic) metals
  | Electronic free energy per atom                       :       -2043.25925048 eV
  Evaluating new KS density.
  Integration grid: deviation in total charge (<rho> - N_e) =   5.684342E-14
  | <rho_up-rho_dn> = N_up-N_dn =      2.0000; <|rho_up-rho_dn|> =      2.0001

  Self-consistency convergence accuracy:
  | Change of charge/spin density :  0.3252E-05  0.5382E-04
  | Change of unmixed KS charge/spin density :  0.1856E-05  0.1453E-04
  | Change of sum of eigenvalues  :  0.4343E-03 eV
  | Change of total energy        : -0.2444E-07 eV


------------------------------------------------------------
  End self-consistency iteration #     5       :  max(cpu_time)    wall_clock(cpu1)
  | Time for this iteration                     :        0.020 s           0.020 s
  | Charge density update                       :        0.005 s           0.005 s
  | Density mixing                              :        0.002 s           0.002 s
  | Hartree multipole update                    :        0.001 s           0.001 s
  | Hartree multipole summation                 :        0.002 s           0.001 s
  | Integration                                 :        0.010 s           0.010 s
  | Solution of K.-S. eqns.                     :        0.000 s           0.000 s
  | Total energy evaluation                     :        0.000 s           0.000 s

  Partial memory accounting:
  | Current value for overall tracked memory usage:
  |   Minimum:        0.005 MB (on task 0)
  |   Maximum:        0.005 MB (on task 0)
  |   Average:        0.005 MB
  | Peak value for overall tracked memory usage:
  |   Minimum:        0.221 MB (on task 0 after allocating grid_partition)
  |   Maximum:        0.221 MB (on task 0 after allocating grid_partition)
  |   Average:        0.221 MB
  | Largest tracked array allocation so far:
  |   Minimum:        0.147 MB (all_coords on task 0)
  |   Maximum:        0.147 MB (all_coords on task 0)
  |   Average:        0.147 MB
  Note:  These values currently only include a subset of arrays which are explicitly tracked.
  The "true" memory usage will be greater.
------------------------------------------------------------

------------------------------------------------------------
          Begin self-consistency iteration #    6

  Date     :  20260210, Time     :  175747.584
------------------------------------------------------------
  Pulay mixing of updated and previous charge densities.
  Renormalizing the density to the exact electron count on the 3D integration grid.
  | Formal number of electrons (from input files) :       8.0000000000
  | Integrated number of electrons on 3D grid     :       8.0000000000
  | Charge integration error                      :       0.0000000000
  | Normalization factor for density and gradient :       1.0000000000

  Evaluating partitioned Hartree potential by multipole expansion.
  | Original multipole sum: apparent total charge =   0.277060E-13
  | Sum of charges compensated after spline to logarithmic grids =   0.265879E-05
  | Analytical far-field extrapolation by fixed multipoles:
  | Hartree multipole sum: apparent total charge =   0.276834E-13
  Summing up the Hartree potential.
  Time summed over all CPUs for potential: real work        0.002 s, elapsed        0.002 s
  | RMS charge density error from multipole expansion :   0.861286E-10

  Integrating Hamiltonian matrix: batch-based integration.
  Time summed over all CPUs for integration: real work        0.010 s, elapsed        0.010 s

  Updating Kohn-Sham eigenvalues and eigenvectors using ELSI and the (modified) LAPACK eigensolver.
  Starting LAPACK eigensolver
  Finished Cholesky decomposition
  | Time :     0.000 s
  Finished transformation to standard eigenproblem
  | Time :     0.000 s
  Finished solving standard eigenproblem
  | Time :     0.000 s
  Finished back-transformation of eigenvectors
  | Time :     0.000 s

  Obtaining occupation numbers and electronic chemical potential using ELSI.
  | Note that, for insulating systems, the printed 'chemical potential' value is not uniquely defined.
  | It can be anywhere in the energy gap, as long as it correctly separates occupied and unoccupied states.
  | In systems with a gap, the physically relevant chemical potential is the VBM or HOMO.

  | Chemical potential (Fermi level):    -7.19516375 eV
  Current spin moment of the entire structure :
  | N = N_up - N_down :    2.00
  | S                 :    1.00
  | J                 :    3.00

  Highest occupied state (VBM) at    -10.20963427 eV
  | Occupation number:      1.00000000
  | Spin channel:        1

  Lowest unoccupied state (CBM) at    -7.17993530 eV
  | Occupation number:      0.33333393
  | Spin channel:        2

  Overall HOMO-LUMO gap:      3.02969897 eV.
  This system has fractional occupation numbers. Thus, it is a degenerate system
  within the approximate finite broadening function (occupation_type)
  applied to determine the occupation numbers.
  This may not be harmful. However, for some systems (free atoms), a different, non-degenerate
  ground state might exist by using a smaller broadening (see keyword occupation_type).

  Total energy components:
  | Sum of eigenvalues            :         -40.93912987 Ha       -1114.01040390 eV
  | XC energy correction          :          -8.34731037 Ha        -227.14187193 eV
  | XC potential correction       :          10.72535737 Ha         291.85182328 eV
  | Free-atom electrostatic energy:         -36.44232393 Ha        -991.64608855 eV
  | Hartree energy correction     :          -0.08357325 Ha          -2.27414378 eV
  | Entropy correction            :          -0.00070863 Ha          -0.01928279 eV
  | ---------------------------
  | Total energy                  :         -75.08698004 Ha       -2043.22068488 eV
  | Total energy, T -> 0          :         -75.08768867 Ha       -2043.23996767 eV  <-- do not rely on this value for anything but (periodic) metals
  | Electronic free energy        :         -75.08839730 Ha       -2043.25925046 eV

  Derived energy quantities:
  | Kinetic energy                :          74.99603410 Ha        2040.74591981 eV
  | Electrostatic energy          :        -141.73570377 Ha       -3856.82473277 eV
  | Energy correction for multipole
  | error in Hartree potential    :           0.00000000 Ha           0.00000000 eV
  | Sum of eigenvalues per atom                           :       -1114.01040390 eV
  | Total energy (T->0) per atom                          :       -2043.23996767 eV  <-- do not rely on this value for anything but (periodic) metals
  | Electronic free energy per atom                       :       -2043.25925046 eV

  Self-consistency convergence accuracy:
  | Change of charge/spin density :  0.2866E-05  0.6003E-05
  | Change of unmixed KS charge/spin density :  0.3359E-05  0.1368E-04
  | Change of sum of eigenvalues  : -0.7038E-04 eV
  | Change of total energy        :  0.1524E-07 eV

  Writing Kohn-Sham eigenvalues.

  Spin-up eigenvalues:

  State    Occupation    Eigenvalue [Ha]    Eigenvalue [eV]
      1       1.00000         -18.931515         -515.15274
      2       1.00000          -0.926124          -25.20111
      3       1.00000          -0.375197          -10.20963
      4       1.00000          -0.375197          -10.20963
      5       1.00000          -0.375197          -10.20963
      6       0.00000           0.287024            7.81033
      7       0.00000           0.287024            7.81033

  Spin-down eigenvalues:

  State    Occupation    Eigenvalue [Ha]    Eigenvalue [eV]
      1       1.00000         -18.884809         -513.88181
      2       1.00000          -0.807232          -21.96591
      3       0.33333          -0.263858           -7.17994
      4       0.33333          -0.263858           -7.17994
      5       0.33333          -0.263858           -7.17994
      6       0.00000           0.335263            9.12297
      7       0.00000           0.335263            9.12297

  Current spin moment of the entire structure :
  | N = N_up - N_down :    2.00
  | S                 :    1.00
  | J                 :    3.00

  Highest occupied state (VBM) at    -10.20963427 eV
  | Occupation number:      1.00000000
  | Spin channel:        1

  Lowest unoccupied state (CBM) at    -7.17993530 eV
  | Occupation number:      0.33333393
  | Spin channel:        2

  Overall HOMO-LUMO gap:      3.02969897 eV.
  This system has fractional occupation numbers. Thus, it is a degenerate system
  within the approximate finite broadening function (occupation_type)
  applied to determine the occupation numbers.
  This may not be harmful. However, for some systems (free atoms), a different, non-degenerate
  ground state might exist by using a smaller broadening (see keyword occupation_type).

  | Chemical Potential                          :    -7.19516375 eV
  | Note that, for insulating systems, the printed 'chemical potential' value is not uniquely defined.
  | It can be anywhere in the energy gap, as long as it correctly separates occupied and unoccupied states.
  | In systems with a gap, the physically relevant chemical potential is the VBM or HOMO.

  Self-consistency cycle converged.


------------------------------------------------------------
  End self-consistency iteration #     6       :  max(cpu_time)    wall_clock(cpu1)
  | Time for this iteration                     :        0.015 s           0.015 s
  | Charge density update                       :        0.000 s           0.000 s
  | Density mixing                              :        0.002 s           0.002 s
  | Hartree multipole update                    :        0.001 s           0.001 s
  | Hartree multipole summation                 :        0.002 s           0.001 s
  | Integration                                 :        0.010 s           0.010 s
  | Solution of K.-S. eqns.                     :        0.000 s           0.000 s
  | Total energy evaluation                     :        0.000 s           0.001 s

  Partial memory accounting:
  | Current value for overall tracked memory usage:
  |   Minimum:        0.005 MB (on task 0)
  |   Maximum:        0.005 MB (on task 0)
  |   Average:        0.005 MB
  | Peak value for overall tracked memory usage:
  |   Minimum:        0.221 MB (on task 0 after allocating grid_partition)
  |   Maximum:        0.221 MB (on task 0 after allocating grid_partition)
  |   Average:        0.221 MB
  | Largest tracked array allocation so far:
  |   Minimum:        0.147 MB (all_coords on task 0)
  |   Maximum:        0.147 MB (all_coords on task 0)
  |   Average:        0.147 MB
  Note:  These values currently only include a subset of arrays which are explicitly tracked.
  The "true" memory usage will be greater.
------------------------------------------------------------

  Energy and forces in a compact form:
  | Total energy uncorrected      :         -0.204322068488360E+04 eV
  | Total energy corrected        :         -0.204323996767386E+04 eV  <-- do not rely on this value for anything but (periodic) metals
  | Electronic free energy        :         -0.204325925046412E+04 eV

  ------------------------------------ 
  Start decomposition of the XC Energy 
  ------------------------------------ 
  X and C from original XC functional choice 
  Hartree-Fock Energy :          0.000000000 Ha              0.000000000 eV
  X Energy            :         -8.111024311 Ha           -220.712201213 eV
  C Energy            :         -0.236286056 Ha             -6.429670714 eV
  XC Energy w/o HF    :         -8.347310367 Ha           -227.141871927 eV
  Total XC Energy     :         -8.347310367 Ha           -227.141871927 eV
  ------------------------------------ 
  LDA X and C from self-consistent density 
  X Energy LDA        :         -7.333333755 Ha           -199.550164461 eV
  C Energy LDA        :         -0.534430640 Ha            -14.542597623 eV
  ------------------------------------ 
  End decomposition of the XC Energy 
  ------------------------------------ 

------------------------------------------------------------

------------------------------------------------------------------------------
  Final output of selected total energy values:

  The following output summarizes some interesting total energy values
  at the end of a run (AFTER all relaxation, molecular dynamics, etc.).

  | Total energy of the DFT / Hartree-Fock s.c.f. calculation      :          -2043.220684884 eV
  | Final zero-broadening corrected energy (caution - metals only) :          -2043.239967674 eV
  | For reference only, the value of 1 Hartree used in FHI-aims is :             27.211384500 eV

  Before relying on these values, please be sure to understand exactly which
  total energy value is referred to by a given number. Different objects may
  all carry the same name 'total energy'. Definitions:

  Total energy of the DFT / Hartree-Fock s.c.f. calculation:
  | Note that this energy does not include ANY quantities calculated after the
  | s.c.f. cycle, in particular not ANY RPA, MP2, etc. many-body perturbation terms.

  Final zero-broadening corrected energy:
  | For metallic systems only, a broadening of the occupation numbers at the Fermi
  | level can be extrapolated back to zero broadening by an electron-gas inspired
  | formula. For all systems that are not real metals, this value can be
  | meaningless and should be avoided.

------------------------------------------------------------------------------
  Methods described in the following list of references were used in this FHI-aims run.
  If you publish the results, please make sure to cite these reference if they apply.
  FHI-aims is an academic code, and for our developers (often, Ph.D. students
  and postdocs), scientific credit in the community is essential.
  Thank you for helping us!

  For any use of FHI-aims, please cite:

    Volker Blum, Ralf Gehrke, Felix Hanke, Paula Havu, Ville Havu,
    Xinguo Ren, Karsten Reuter, and Matthias Scheffler
    'Ab initio molecular simulations with numeric atom-centered orbitals'
    Computer Physics Communications 180, 2175-2196 (2009)
    http://doi.org/10.1016/j.cpc.2009.06.022


  The ELSI infrastructure was used in your run to solve the Kohn-Sham electronic structure.
  Please check out http://elsi-interchange.org to learn more.
  If scalability is important for your project, please acknowledge ELSI by citing:

    V. W-z. Yu, F. Corsetti, A. Garcia, W. P. Huhn, M. Jacquelin, W. Jia,
    B. Lange, L. Lin, J. Lu, W. Mi, A. Seifitokaldani, A. Vazquez-Mayagoitia,
    C. Yang, H. Yang, and V. Blum
    'ELSI: A unified software interface for Kohn-Sham electronic structure solvers'
    Computer Physics Communications 222, 267-285 (2018).
    http://doi.org/10.1016/j.cpc.2017.09.007


  For the real-space grid partitioning and parallelization used in this calculation, please cite:

    Ville Havu, Volker Blum, Paula Havu, and Matthias Scheffler,
    'Efficient O(N) integration for all-electron electronic structure calculation'
    'using numerically tabulated basis functions'
    Journal of Computational Physics 228, 8367-8379 (2009).
    http://doi.org/10.1016/j.jcp.2009.08.008

  Of course, there are many other important community references, e.g., those cited in the
  above references. Our list is limited to references that describe implementations in the
  FHI-aims code. The reason is purely practical (length of this list) - please credit others as well.

------------------------------------------------------------
          Leaving FHI-aims.
          Date     :  20260210, Time     :  175747.605

          Computational steps:
          | Number of self-consistency cycles          :            6
          | Number of SCF (re)initializations          :            1

          Detailed time accounting                     :  max(cpu_time)    wall_clock(cpu1)
          | Total time                                  :        0.310 s           0.313 s
          | Preparation time                            :        0.134 s           0.135 s
          | Boundary condition initalization            :        0.000 s           0.000 s
          | Grid partitioning                           :        0.006 s           0.006 s
          | Preloading free-atom quantities on grid     :        0.006 s           0.006 s
          | Free-atom superposition energy              :        0.005 s           0.005 s
          | Total time for integrations                 :        0.072 s           0.072 s
          | Total time for solution of K.-S. equations  :        0.002 s           0.002 s
          | Total time for density update               :        0.033 s           0.032 s
          | Total time for mixing                       :        0.010 s           0.011 s
          | Total time for Hartree multipole update     :        0.004 s           0.004 s
          | Total time for Hartree multipole sum        :        0.012 s           0.011 s
          | Total time for total energy evaluation      :        0.000 s           0.001 s
          | Total time for scaled ZORA corrections      :        0.000 s           0.000 s

          Partial memory accounting:
          | Residual value for overall tracked memory usage across tasks:     0.000000 MB (should be 0.000000 MB)
          | Peak values for overall tracked memory usage:
          |   Minimum:        0.221 MB (on task 0 after allocating grid_partition)
          |   Maximum:        0.221 MB (on task 0 after allocating grid_partition)
          |   Average:        0.221 MB
          | Largest tracked array allocation:
          |   Minimum:        0.147 MB (all_coords on task 0)
          |   Maximum:        0.147 MB (all_coords on task 0)
          |   Average:        0.147 MB
          Note:  These values currently only include a subset of arrays which are explicitly tracked.
          The "true" memory usage will be greater.

          Have a nice day.
------------------------------------------------------------
